# Generated by atomlib on 2024-04-02 13:01:30-04:00

        4 atoms
        2 atom types
        0.0000000      3.1300000 xlo xhi
        0.0000000      2.7106595 ylo yhi
        0.0000000      5.0200000 zlo zhi
       -1.5650000      0.0000000      0.0000000 xy xz yz

Atom Type Labels

       10   Al1
       20    N2

Masses

       10      5.0000000
       20     10.0000000

Atoms  # atomic

        1   10  0.0 0.0 0.0
        3   20  0.0 0.0 1.0
        4   20  1.0 0.0 1.0
        2   10  0.0 1.0 0.0

Velocities

4 1.0 0.0 1.0
2 0.0 1.0 0.0
1 0.0 0.0 0.0
3 0.0 0.0 1.0