CRYSTAL
PRIMVEC
  32.4000000   0.0000000   0.0000000
   0.0000000  32.4000000   0.0000000
   0.0000000   0.0000000  32.4000000
CONVVEC
  32.4000000   0.0000000   0.0000000
   0.0000000  32.4000000   0.0000000
   0.0000000   0.0000000  32.4000000

PRIMCOORD
2085 1
13   -0.042815   -0.055837   -0.081157
13   -0.049668    1.965983    1.936838
13    1.978043   -0.069188    1.931096
13    1.972794    1.955586   -0.110041
13   -0.041596   -0.055021    3.978481
13   -0.045113    1.969848    6.001244
13    1.981507   -0.065352    5.995632
13    1.969320    1.950242    3.946091
13   -0.030505   -0.042450    8.046923
13   -0.025523    1.989989   10.075844
13    1.999018   -0.042354   10.071272
13    1.978241    1.959690    8.018035
13   -0.007149   -0.014568   12.118221
13    0.007932    2.026807   14.148542
13    2.030350    0.000976   14.145336
13    2.009038    1.996458   12.101913
13    0.019202    0.019122   16.180527
13    0.033234    2.059034   18.206405
13    2.055625    0.039932   18.203219
13    2.050698    2.050557   16.173874
13    0.031141    0.038435   20.232880
13    0.033094    2.066533   22.259827
13    2.057586    0.049794   22.255283
13    2.065780    2.078167   20.227663
13    0.026104    0.037992   24.286668
13    0.019418    2.057639   26.319712
13    2.046006    0.039640   26.314111
13    2.053100    2.071596   24.286823
13    0.014970    0.028388   28.345521
13    0.006404    2.046168   30.382307
13    2.034101    0.025961   30.376560
13    2.036544    2.055643   28.352512
13    4.003342   -0.079028   -0.113723
13    3.991843    1.935843    1.892902
13    6.026136   -0.098395    1.892817
13    6.021927    1.928523   -0.153173
13    3.999977   -0.085238    3.942382
13    3.989381    1.930726    5.953497
13    6.024342   -0.103054    5.954226
13    6.012196    1.910427    3.891947
13    4.007425   -0.074671    8.014631
13    4.006183    1.952553   10.037632
13    6.038353   -0.078172   10.038201
13    6.012617    1.908687    7.961035
13    4.034116   -0.033240   12.098979
13    4.052588    2.018497   14.130922
13    6.075847   -0.007237   14.129645
13    6.043013    1.957747   12.064046
13    4.071300    0.028242   16.171120
13    4.092815    2.084103   18.194981
13    6.109743    0.063783   18.192429
13    6.103985    2.065261   16.158580
13    4.086981    0.061159   20.223650
13    4.088350    2.090943   22.251162
13    6.109322    0.074333   22.245579
13    6.122678    2.113905   20.213527
13    4.077887    0.055047   24.280650
13    4.068416    2.070075   26.319712
13    6.094250    0.052882   26.311201
13    6.101949    2.091749   24.282699
13    4.063811    0.037014   28.345282
13    4.053850    2.050892   30.388431
13    6.081899    0.031406   30.379275
13    6.083329    2.063476   28.357620
13    8.058458   -0.103687   -0.148954
13    8.045242    1.901622    1.841495
13   10.086571   -0.126949    1.854565
13   10.084087    1.902924   -0.195063
13    8.051617   -0.120977    3.898855
13    8.035861    1.879320    5.888456
13   10.081509   -0.144503    5.907601
13   10.072752    1.868833    3.833075
13    8.053099   -0.119301    7.969877
13    8.042594    1.889885    9.973882
13   10.088344   -0.125599    9.995001
13   10.065816    1.845445    7.886933
13    8.076565   -0.065873   12.069671
13    8.093295    1.995325   14.100556
13   10.121422   -0.023066   14.109011
13   10.084048    1.891733   12.002634
13    8.120386    0.040447   16.158428
13    8.148356    2.126794   18.176748
13   10.156023    0.095474   18.178883
13   10.151261    2.085530   16.137210
13    8.137161    0.092996   20.210761
13    8.136066    2.122745   22.240585
13   10.152619    0.101477   22.234769
13   10.167152    2.160698   20.194916
13    8.124541    0.074663   24.274024
13    8.113691    2.082682   26.322554
13   10.138537    0.065010   26.309466
13   10.143982    2.111198   24.281435
13    8.110447    0.045356   28.346205
13    8.101081    2.054767   30.397029
13   10.129035    0.035706   30.382827
13   10.129213    2.069674   28.365225
13   12.124978   -0.123235   -0.177398
13   12.115892    1.873402    1.797703
13   14.160079   -0.145105    1.829753
13   14.159300    1.887041   -0.221628
13   12.119223   -0.151607    3.860557
13   12.106946    1.832318    5.825863
13   14.157292   -0.172958    5.874671
13   14.154161    1.841527    3.792938
13   12.117343   -0.162826    7.925107
13   12.105248    1.819349    9.898225
13   14.158709   -0.163038    9.960303
13   14.149715    1.799228    7.829432
13   12.130251   -0.105430   12.036188
13   12.138367    1.954083   14.058703
13   14.172278   -0.039420   14.091606
13   14.154202    1.829117   11.942588
13   12.163399    0.052862   16.145400
13   12.186364    2.180908   18.154228
13   14.188271    0.121750   18.167976
13   14.186511    2.103421   16.118065
13   12.174848    0.125358   20.197461
13   12.171790    2.150857   22.233042
13   14.185847    0.120134   22.227380
13   14.192279    2.196322   20.180878
13   12.164539    0.090907   24.269059
13   12.156747    2.091711   26.327938
13   14.179885    0.072236   26.309110
13   14.181644    2.122678   24.283218
13   12.155499    0.051352   28.347974
13   12.149673    2.057113   30.405436
13   14.176287    0.038027   30.385540
13   14.176109    2.072920   28.371518
13   16.199736   -0.130833   -0.188586
13   16.199637    1.862261    1.780035
13   18.239356   -0.145299    1.829485
13   18.240103    1.886872   -0.221913
13   16.199669   -0.163993    3.844774
13   16.199530    1.812866    5.798939
13   18.242045   -0.173271    5.874304
13   18.245054    1.841231    3.792497
13   16.199638   -0.181718    7.905185
13   16.199485    1.786709    9.861163
13   18.240696   -0.163472    9.959895
13   18.249350    1.798712    7.828772
13   16.199765   -0.125141   12.019685
13   16.199832    1.927973   14.034429
13   18.227634   -0.039631   14.091395
13   18.245064    1.828343   11.941825
13   16.200147    0.058584   16.139356
13   16.200420    2.209150   18.142386
13   18.212218    0.122063   18.167847
13   18.213909    2.103642   16.117827
13   16.200273    0.139878   20.191394
13   16.200226    2.161836   22.231089
13   18.214562    0.120338   22.227299
13   18.208369    2.196722   20.180723
13   16.200152    0.097268   24.267329
13   16.200064    2.094893   26.330991
13   18.220304    0.072312   26.309110
13   18.218616    2.122795   24.283252
13   16.200055    0.053527   28.348945
13   16.199993    2.057868   30.409093
13   18.223765    0.038051   30.385571
13   18.223938    2.072952   28.371592
13   20.274587   -0.123523   -0.177821
13   20.283529    1.872982    1.797040
13   22.313076   -0.127448    1.853889
13   22.315523    1.902484   -0.195793
13   20.280264   -0.152071    3.859969
13   20.292364    1.831592    5.824869
13   22.318151   -0.145263    5.906732
13   22.326810    1.868091    3.831999
13   20.282153   -0.163522    7.924379
13   20.294126    1.818164    9.896905
13   22.311460   -0.126548    9.994131
13   22.333809    1.844232    7.885464
13   20.269496   -0.106128   12.035604
13   20.261574    1.953223   14.057889
13   22.278629   -0.023437   14.108586
13   22.315891    1.890253   12.001247
13   20.236815    0.053068   16.145183
13   20.214146    2.181893   18.153817
13   22.244185    0.096123   18.178611
13   22.248902    2.085958   16.136755
13   20.225546    0.125887   20.197241
13   20.228598    2.151276   22.232954
13   22.247624    0.101976   22.234570
13   22.233159    2.161622   20.194548
13   20.235719    0.091148   24.268991
13   20.243394    2.091835   26.328043
13   22.261614    0.065214   26.309447
13   22.256238    2.111525   24.281452
13   20.244608    0.051436   28.348008
13   20.250335    2.057143   30.405571
13   22.271023    0.035774   30.382896
13   22.270864    2.069770   28.365382
13   24.341323   -0.104154   -0.149627
13   24.354519    1.900959    1.840481
13   26.373791   -0.099002    1.892013
13   26.377969    1.927970   -0.154065
13   24.348196   -0.121685    3.897981
13   24.363985    1.878258    5.887077
13   26.375686   -0.103890    5.953299
13   26.387797    1.909567    3.890754
13   24.346826   -0.120254    7.968911
13   24.357485    1.888429    9.972371
13   26.361796   -0.079045   10.037407
13   26.387570    1.907477    7.959659
13   24.323510   -0.066655   12.068997
13   24.306897    1.994648   14.099796
13   26.324257   -0.007479   14.129270
13   26.357306    1.956679   12.063043
13   24.279685    0.040710   16.158152
13   24.251658    2.127833   18.176313
13   26.290228    0.064358   18.192176
13   26.295989    2.065620   16.158204
13   24.262944    0.093689   20.210479
13   24.264102    2.123396   22.240385
13   26.290714    0.074878   22.245362
13   26.277270    2.114772   20.213184
13   24.275595    0.075045   24.273900
13   24.286436    2.082910   26.322646
13   26.305826    0.053149   26.311151
13   26.298142    2.092170   24.282636
13   24.289640    0.045506   28.346236
13   24.298965    2.054830   30.397213
13   26.318154    0.031507   30.379341
13   26.316751    2.063623   28.357754
13   28.396658   -0.079525   -0.114425
13   28.408233    1.935173    1.891913
13   30.422082   -0.069730    1.930393
13   30.427320    1.955075   -0.110845
13   28.400116   -0.085922    3.941559
13   28.410857    1.929788    5.952337
13   30.418712   -0.066005    5.994920
13   30.430927    1.949536    3.945147
13   28.392776   -0.075461    8.013843
13   28.394194    1.951547   10.036619
13   30.401221   -0.042914   10.070741
13   30.422132    1.958873    8.017133
13   28.366071   -0.033749   12.098493
13   28.347567    2.018213   14.130457
13   30.369720    0.000877   14.145080
13   30.391247    1.995933   12.101363
13   28.328679    0.028459   16.170896
13   28.307003    2.084769   18.194688
13   30.344262    0.040314   18.203039
13   30.349214    2.050791   16.173632
13   28.312937    0.061715   20.223426
13   28.311598    2.091526   22.250959
13   30.342329    0.050219   22.255116
13   30.334035    2.078731   20.227440
13   28.322120    0.055428   24.280517
13   28.331642    2.070338   26.319735
13   30.353994    0.039893   26.314049
13   30.346868    2.071964   24.286732
13   28.336234    0.037191   28.345287
13   28.346208    2.050981   30.388583
13   30.365932    0.026074   30.376602
13   30.363501    2.055803   28.352584
13   -0.053823    3.992730   -0.100747
13   -0.061460    6.016200    1.916680
13    1.962315    3.974904    1.901331
13    1.960988    6.006965   -0.134980
13   -0.056080    3.989309    3.956351
13   -0.060132    6.015239    5.979325
13    1.960845    3.971399    5.962498
13    1.951289    5.995542    3.913314
13   -0.045063    3.998224    8.027657
13   -0.037416    6.031954   10.059900
13    1.980698    3.990658   10.045533
13    1.955468    5.996202    7.983221
13   -0.012380    4.028629   12.108621
13    0.011579    6.073658   14.144219
13    2.031386    4.045955   14.136197
13    1.996093    6.031806   12.081461
13    0.028479    4.071243   16.178300
13    0.045641    6.111845   18.206890
13    2.071677    4.099204   18.200213
13    2.065738    6.103860   16.170335
13    0.040607    4.092372   20.233215
13    0.033785    6.115647   22.267152
13    2.062949    4.103766   22.259019
13    2.076012    6.133711   20.230789
13    0.025501    4.087037   24.293630
13    0.009889    6.103319   26.336286
13    2.039918    4.086394   26.328711
13    2.044937    6.118320   24.304854
13    0.007798    4.074468   28.359255
13   -0.005674    6.091832   30.403189
13    2.024328    4.070826   30.396882
13    2.022451    6.100005   28.379037
13    3.988890    3.966113   -0.148354
13    3.974627    5.982780    1.852762
13    6.006882    3.938946    1.840520
13    6.007972    5.978094   -0.195667
13    3.977906    3.950322    3.896930
13    3.962256    5.965403    5.899463
13    5.994366    3.916875    5.884842
13    5.987927    5.947931    3.826801
13    3.978892    3.948557    7.965578
13    3.973017    5.971737    9.982962
13    6.001539    3.922837    9.968153
13    5.973076    5.921440    7.870795
13    4.015260    3.991393   12.068045
13    4.048292    6.052515   14.109834
13    6.067742    4.020236   14.099919
13    5.999515    5.946951   11.982490
13    4.086456    4.086165   16.162796
13    4.118507    6.152482   18.190397
13    6.137779    4.145639   18.180599
13    6.131956    6.131162   16.141470
13    4.102696    4.126263   20.220881
13    4.085431    6.143533   22.267571
13    6.113822    4.135542   22.252805
13    6.133504    6.185723   20.219931
13    4.075097    4.105428   24.293995
13    4.052583    6.113709   26.353179
13    6.084666    4.098147   26.338523
13    6.085318    6.137159   24.323993
13    4.053597    4.081269   28.369406
13    4.038174    6.094648   30.424056
13    6.070443    4.074044   30.411761
13    6.065039    6.105265   28.405030
13    8.044083    3.937153   -0.201918
13    8.027255    5.944277    1.775148
13   10.070172    3.903299    1.777507
13   10.072604    5.950689   -0.255699
13    8.027241    3.902466    3.820158
13    8.003647    5.898287    5.782253
13   10.053182    3.855443    5.790726
13   10.051668    5.898621    3.730369
13    8.014688    3.873291    7.865216
13    7.988324    5.859082    9.821953
13   10.044039    3.822654    9.842894
13   10.027353    5.830377    7.714246
13    8.036128    3.906079   11.979134
13    8.055611    5.956486   14.000974
13   10.096289    3.944734   14.020976
13   10.017664    5.778563   11.748573
13    8.142386    4.112768   16.134666
13    8.189355    6.248118   18.155742
13   10.191253    4.228771   18.146679
13   10.197439    6.192008   16.073531
13    8.155121    4.180458   20.202731
13    8.120682    6.177624   22.288535
13   10.151229    4.168426   22.255167
13   10.157215    6.247061   20.240649
13    8.117522    4.125364   24.301791
13    8.093101    6.123166   26.386055
13   10.127903    4.107500   26.355878
13   10.122055    6.153102   24.366671
13    8.098782    4.086964   28.385833
13    8.085010    6.096436   30.452297
13   10.119147    4.075980   30.429217
13   10.112385    6.108952   28.438969
13   12.115875    3.914089   -0.245982
13   12.104459    5.912988    1.708678
13   14.153556    3.880797    1.736193
13   14.154825    5.933849   -0.293806
13   12.103004    3.861576    3.750637
13   12.086025    5.840222    5.669699
13   14.145615    3.814414    5.723079
13   14.145942    5.867610    3.665613
13   12.089070    3.799758    7.756586
13   12.067185    5.745529    9.620841
13   14.138529    3.745253    9.732056
13   14.135049    5.772260    7.598417
13   12.089092    3.783422   11.836958
13   12.075903    5.706385   13.659857
13   14.152933    3.833053   13.906132
13   14.128326    5.656943   11.508435
13   12.184565    4.151305   16.092659
13   12.193244    6.366826   18.158453
13   14.204643    4.309958   18.113767
13   14.225190    6.293668   15.911280
13   12.182975    4.233262   20.192370
13   12.150739    6.201748   22.346120
13   14.182878    4.186546   22.268154
13   14.177460    6.277741   20.320710
13   12.156775    4.139302   24.318619
13   12.141165    6.129549   26.425646
13   14.174930    4.112228   26.371712
13   14.170901    6.162093   24.409549
13   12.147196    4.090355   28.403551
13   12.139168    6.097321   30.478768
13   14.172257    4.076762   30.441702
13   14.169097    6.110926   28.464522
13   16.199639    3.905158   -0.263397
13   16.199515    5.900894    1.682100
13   18.245633    3.880557    1.735746
13   18.244408    5.933672   -0.294213
13   16.199494    3.845360    3.721937
13   16.199311    5.817952    5.623116
13   18.253284    3.813972    5.722327
13   18.252961    5.867283    3.664912
13   16.199326    3.769422    7.707854
13   16.199107    5.704463    9.531838
13   18.260134    3.744397    9.730740
13   18.263447    5.771665    7.597147
13   16.199263    3.722339   11.754877
13   16.199218    5.599068   13.403565
13   18.246371    3.831431   13.904366
13   18.269889    5.655845   11.505700
13   16.200424    4.175003   16.065889
13   16.200151    6.396291   18.260854
13   18.196458    4.310920   18.113391
13   18.176264    6.294849   15.906526
13   16.200319    4.252176   20.195341
13   16.199950    6.210537   22.382923
13   18.217450    4.186718   22.268367
13   18.222750    6.278051   20.321995
13   16.200052    4.143917   24.328826
13   16.199888    6.131961   26.444302
13   18.225079    4.112274   26.371904
13   18.228974    6.162189   24.410074
13   16.199962    4.091433   28.411614
13   16.199879    6.097608   30.489921
13   18.227644    4.076769   30.441841
13   18.230689    6.110947   28.464810
13   20.283536    3.913750   -0.246639
13   20.294767    5.912529    1.707677
13   22.329338    3.902678    1.776383
13   22.326905    5.950220   -0.256747
13   20.296218    3.860964    3.749565
13   20.312923    5.839369    5.667954
13   22.346279    3.854326    5.788941
13   22.347714    5.897760    3.728616
13   20.309991    3.798618    7.754801
13   20.331497    5.743896    9.617520
13   22.355606    3.820632    9.840179
13   22.371963    5.828738    7.711179
13   20.310192    3.781218   11.834154
13   20.323301    5.701619   13.651101
13   22.304040    3.942557   14.018806
13   22.382055    5.775023   11.742756
13   20.215856    4.152081   16.091796
13   20.208333    6.368163   18.160438
13   22.209031    4.230701   18.145890
13   22.202410    6.193759   16.071471
13   20.217666    4.234022   20.192367
13   20.249475    6.202079   22.347362
13   22.249138    4.168970   22.255367
13   22.243624    6.248018   20.241877
13   20.243408    4.139486   24.318964
13   20.258747    6.129639   26.426321
13   22.272207    4.107642   26.356261
13   22.278125    6.153355   24.367681
13   20.252784    4.090399   28.403844
13   20.260667    6.097332   30.479182
13   22.280835    4.076006   30.429545
13   22.287575    6.109008   28.439632
13   24.355644    3.936603   -0.202955
13   24.372447    5.943533    1.773605
13   26.393061    3.938190    1.839213
13   26.391926    5.977502   -0.196940
13   24.372518    3.901514    3.818582
13   24.396137    5.896923    5.779740
13   26.405772    3.915638    5.883022
13   26.412114    5.946897    3.824854
13   24.385269    3.871656    7.862927
13   24.411881    5.856489    9.817880
13   26.398965    3.921060    9.966066
13   26.427344    5.919637    7.867927
13   24.364319    3.903790   11.976680
13   24.345589    5.952922   13.997033
13   26.332653    4.019335   14.098855
13   26.401581    5.944316   11.979308
13   24.257578    4.113447   16.133940
13   24.210618    6.250750   18.154887
13   26.261936    4.146932   18.180067
13   26.267683    6.131963   16.140610
13   24.245063    4.181664   20.202371
13   24.279779    6.178249   22.289365
13   26.286288    4.136246   22.252728
13   26.266606    6.187009   20.219810
13   24.282693    4.125725   24.302059
13   24.307046    6.123327   26.386855
13   26.315472    4.098369   26.338805
13   26.314960    6.137529   24.324615
13   24.301294    4.087056   28.386205
13   24.314988    6.096461   30.452889
13   26.329619    4.074096   30.412103
13   26.335086    6.105355   28.405665
13   28.411152    3.965535   -0.149406
13   28.425527    5.982028    1.851288
13   30.437916    3.974249    1.900246
13   30.439199    6.006425   -0.136091
13   28.422310    3.949417    3.895518
13   28.438201    5.964177    5.897428
13   30.439595    3.970488    5.961238
13   30.449128    5.994710    3.911852
13   28.421600    3.947272    7.963937
13   28.427891    5.969992    9.980668
13   30.419866    3.989694   10.044450
13   30.445257    5.995051    7.981576
13   28.385314    3.990242   12.066847
13   28.352203    6.051664   14.108714
13   30.368779    4.045702   14.135716
13   30.404592    6.030831   12.080321
13   28.313384    4.086566   16.162378
13   28.280959    6.153726   18.189913
13   30.328010    4.099841   18.199933
13   30.333983    6.104222   16.169958
13   28.297101    4.127158   20.220562
13   28.314672    6.144200   22.267694
13   30.336943    4.104305   22.258882
13   30.323707    6.134484   20.230573
13   28.324980    4.105834   24.294056
13   28.347609    6.113918   26.353672
13   30.360148    4.086628   26.328833
13   30.355162    6.118678   24.305054
13   28.346504    4.081400   28.369676
13   28.361935    6.094694   30.424564
13   30.375755    4.070900   30.397129
13   30.377698    6.100121   28.379437
13   -0.061340    8.048443   -0.115403
13   -0.067014   10.074870    1.905133
13    1.950150    8.029383    1.875920
13    1.955286   10.068035   -0.149412
13   -0.067368    8.041780    3.937388
13   -0.068491   10.070203    5.964460
13    1.941907    8.018741    5.928710
13    1.940810   10.054065    3.890390
13   -0.058184    8.045102    8.008700
13   -0.044367   10.080040   10.047948
13    1.959442    8.027591   10.013400
13    1.938925   10.045990    7.952696
13   -0.016647    8.072536   12.099472
13    0.019374   10.118730   14.143973
13    2.033950    8.087159   14.126774
13    1.984578   10.069536   12.060182
13    0.041050    8.120351   16.179094
13    0.054483   10.158603   18.213504
13    2.089449    8.154258   18.202675
13    2.086878   10.151105   16.172836
13    0.044373    8.141100   20.240300
13    0.020445   10.160829   22.287469
13    2.053285    8.150963   22.279960
13    2.068544   10.181447   20.252009
13    0.013517    8.132478   24.312766
13   -0.011283   10.149813   26.366380
13    2.019831    8.130814   26.362885
13    2.017361   10.163788   24.347262
13   -0.008469    8.120268   28.384807
13   -0.024556   10.140743   30.433564
13    2.005965    8.116979   30.431591
13    1.997259   10.147947   28.422767
13    3.978091    8.022870   -0.176993
13    3.964986   10.044943    1.825597
13    5.991334    7.993119    1.792321
13    6.000576   10.043011   -0.222926
13    3.958782    8.000511    3.852307
13    3.943815   10.020334    5.853692
13    5.965769    7.956136    5.805275
13    5.973182   10.009263    3.776281
13    3.947688    7.982725    7.903771
13    3.941508   10.004614    9.917796
13    5.951894    7.924955    9.850648
13    5.943931    9.963840    7.777651
13    3.983744    8.007485   12.015230
13    4.039773   10.071836   14.078775
13    6.036049    8.005726   14.025097
13    5.942369    9.927193   11.829900
13    4.113969    8.142012   16.156257
13    4.136145   10.214919   18.203620
13    6.170409    8.237939   18.179511
13    6.197252   10.195142   16.123411
13    4.103256    8.183477   20.238582
13    4.049098   10.190690   22.330160
13    6.084369    8.184300   22.317305
13    6.082476   10.248009   20.322187
13    4.050639    8.149552   24.340427
13    4.018513   10.160917   26.419148
13    6.055201    8.140926   26.409202
13    6.038596   10.186096   24.430463
13    4.030296    8.125630   28.418131
13    4.013844   10.144510   30.477585
13    6.049041    8.119368   30.469576
13    6.033769   10.155118   28.485189
13    8.033160    7.994862   -0.247686
13    8.017276   10.010478    1.728028
13   10.057384    7.957620    1.705335
13   10.066600   10.019355   -0.295681
13    8.006652    7.949908    3.739325
13    7.984803    9.954521    5.690205
13   10.029793    7.889329    5.657138
13   10.040712    9.964305    3.652064
13    7.976081    7.888503    7.721420
13    7.954353    9.869788    9.630018
13   10.002926    7.791708    9.581837
13   10.012240    9.875326    7.555279
13    7.963547    7.831217   11.742007
13    7.979671    9.757149   13.554266
13   10.020571    7.683537   13.481595
13   10.021330    9.732792   11.376955
13    8.211379    8.206723   16.082855
13    8.094434   10.401985   18.404476
13   10.134798    8.394208   18.331065
13   10.258229    9.260697   15.059484
13    8.118283    8.251419   20.297348
13    8.056337   10.239749   22.479187
13   10.104931    8.220836   22.430641
13   10.078487   10.372173   20.630331
13    8.080437    8.168800   24.409202
13    8.054394   10.175538   26.510542
13   10.099481    8.150830   26.477224
13   10.078573   10.217277   24.566457
13    8.073374    8.130592   28.468708
13    8.061090   10.148604   30.535418
13   10.101291    8.121275   30.512554
13   10.086273   10.163490   28.560291
13   12.109106    7.972798   -0.305744
13   12.098708    9.983118    1.646335
13   14.148727    7.935886    1.649431
13   14.152579   10.004999   -0.341265
13   12.090696    7.908809    3.639818
13   12.078236    9.902828    5.547584
13   14.137727    7.849578    5.559036
13   14.142473    9.937512    3.573470
13   12.069478    7.811246    7.542473
13   12.072327    9.776011    9.378014
13   14.130837    7.724804    9.402664
13   14.134386    9.829269    7.424409
13   12.069029    7.677352   11.370017
13   12.170636    9.565877   13.139207
13   14.173098    7.586550   13.123084
13   14.155425    9.669551   11.211119
13   12.251477    7.309931   14.995449
13   12.150668   10.728802   18.936684
13   14.167336    8.588064   18.750033
13   14.208909    9.220957   15.089508
13   12.129076    8.324282   20.511440
13   12.112466   10.305506   22.670697
13   14.161874    8.252472   22.544335
13   14.160204   10.486002   20.829797
13   12.128522    8.187376   24.500018
13   12.116951   10.191927   26.602606
13   14.163246    8.158430   26.529638
13   14.155376   10.244961   24.663961
13   12.130396    8.134910   28.518708
13   12.124384   10.152572   30.586804
13   14.165220    8.122615   30.541940
13   14.159108   10.170209   28.611589
13   16.199568    7.964368   -0.328488
13   16.199458    9.972782    1.614532
13   18.250276    7.935659    1.648834
13   18.246568   10.004848   -0.341748
13   16.199370    7.893359    3.600390
13   16.199254    9.884648    5.494382
13   18.260857    7.849176    5.557998
13   18.256288    9.937236    3.572645
13   16.199161    7.785259    7.473647
13   16.199290    9.750868    9.305123
13   18.267420    7.724235    9.400919
13   18.264026    9.828838    7.423138
13   16.199326    7.647464   11.257468
13   16.200344    9.525474   13.123261
13   18.226478    7.586037   13.121688
13   18.243643    9.669043   11.210056
13   16.200806    7.261475   15.030640
13   16.200121   10.806854   19.005969
13   18.232271    8.590421   18.753396
13   18.192485    9.220726   15.089696
13   16.199725    8.367696   20.620346
13   16.199610   10.337475   22.741672
13   18.237666    8.252872   22.545633
13   18.239166   10.487183   20.831453
13   16.199743    8.196560   24.541736
13   16.199639   10.199862   26.640153
13   18.236325    8.158521   26.530225
13   18.243886   10.245290   24.664987
13   16.199781    8.136894   28.539934
13   16.199724   10.154391   30.607530
13   18.234415    8.122631   30.542261
13   18.240297   10.170288   28.612143
13   20.290187    7.972477   -0.306604
13   20.300409    9.982722    1.645127
13   22.342006    7.957011    1.703799
13   22.332850   10.018953   -0.296943
13   20.308297    7.908215    3.638325
13   20.320497    9.902115    5.545526
13   22.369406    7.888188    5.654438
13   22.358529    9.963543    3.649876
13   20.329117    7.810206    7.539818
13   20.325973    9.774948    9.374935
13   22.395993    7.789543    9.576672
13   22.386631    9.873915    7.551425
13   20.329032    7.675903   11.365109
13   20.229028    9.564188   13.138135
13   22.377275    7.678003   13.466208
13   22.376362    9.730452   11.370375
13   20.151692    7.306956   14.997457
13   20.248828   10.732405   18.940209
13   22.267905    8.397623   18.341507
13   22.145137    9.258636   15.060926
13   20.270865    8.325752   20.515581
13   20.286903   10.306672   22.673508
13   22.295352    8.221572   22.433443
13   22.321265   10.375174   20.636812
13   20.271223    8.187699   24.501551
13   20.282528   10.192211   26.604023
13   22.300434    8.151019   26.478586
13   22.321195   10.217952   24.569123
13   20.269308    8.134981   28.519496
13   20.275195   10.152638   30.587584
13   22.298538    8.121309   30.513343
13   22.313449   10.163658   28.561679
13   24.366524    7.994332   -0.249057
13   24.382378   10.009819    1.726104
13   26.408621    7.992357    1.790509
13   26.399326   10.042498   -0.224473
13   24.393027    7.948922    3.737022
13   24.414823    9.953240    5.686827
13   26.434441    7.954730    5.802343
13   26.426867   10.008299    3.773718
13   24.423713    7.886586    7.717350
13   24.445149    9.867140    9.623526
13   26.449021    7.922257    9.845950
13   26.456505    9.961919    7.773213
13   24.436940    7.826885   11.733909
13   24.418418    9.748903   13.534636
13   26.365829    8.002085   14.020741
13   26.459347    9.922798   11.821681
13   24.187103    8.209107   16.079907
13   24.309321   10.408297   18.419396
13   26.229310    8.240633   18.179027
13   26.200504   10.196890   16.121299
13   24.283018    8.252815   20.300309
13   24.344201   10.240982   22.483335
13   26.316274    8.185026   22.318755
13   26.319160   10.249822   20.325816
13   24.319872    8.169187   24.411008
13   24.345649   10.175869   26.512587
13   26.345063    8.141128   26.410420
13   26.361948   10.186632   24.432851
13   24.326642    8.130687   28.469808
13   24.338809   10.148689   30.536598
13   26.351026    8.119410   30.470436
13   26.366384   10.155275   28.486665
13   28.421994    8.022311   -0.178373
13   28.435223   10.044267    1.823742
13   30.450186    8.028725    1.874450
13   30.444956   10.067569   -0.150747
13   28.441553    7.999544    3.850239
13   28.456798   10.019100    5.850809
13   30.458786    8.017703    5.926770
13   30.459741   10.053282    3.888483
13   28.453166    7.981068    7.900830
13   28.459963   10.002352    9.913589
13   30.441638    8.026207   10.011382
13   30.462142   10.044726    7.950215
13   28.417728    8.005217   12.012230
13   28.361745   10.069529   14.075866
13   30.366422    8.086585   14.125886
13   30.416718   10.068066   12.058086
13   28.285405    8.142698   16.155523
13   28.263322   10.216958   18.203490
13   30.309942    8.155198   18.202353
13   30.312435   10.151541   16.172372
13   28.296817    8.184651   20.238742
13   28.351685   10.191462   22.331836
13   30.346841    8.151532   22.280250
13   30.331490   10.182349   20.252313
13   28.349747    8.149929   24.341341
13   28.381913   10.161172   26.420627