CRYSTAL
PRIMVEC
  25.0400000   0.0000000   0.0000000
   0.0000000  27.1065951   0.0000000
   0.0000000   0.0000000  25.1000000
CONVVEC
  25.0400000   0.0000000   0.0000000
   0.0000000  27.1065951   0.0000000
   0.0000000   0.0000000  25.1000000

PRIMCOORD
1600 1
13    1.831978    0.590808    2.510000
 7    1.831978    0.590808    4.417600
13    0.248756    1.463243    0.000000
 7    0.248756    1.463243    1.907600
13    0.224332    3.247831    2.510000
 7    0.224332    3.247831    4.417600
13    1.778953    4.154101    0.000000
 7    1.778953    4.154101    1.907600
13    1.831978    0.590808    7.530000
 7    1.831978    0.590808    9.437600
13    0.248756    1.463243    5.020000
 7    0.248756    1.463243    6.927600
13    0.224332    3.247831    7.530000
 7    0.224332    3.247831    9.437600
13    1.778953    4.154101    5.020000
 7    1.778953    4.154101    6.927600
13    1.831978    0.590808   12.550000
 7    1.831978    0.590808   14.457600
13    0.248756    1.463243   10.040000
 7    0.248756    1.463243   11.947600
13    0.224332    3.247831   12.550000
 7    0.224332    3.247831   14.457600
13    1.778953    4.154101   10.040000
 7    1.778953    4.154101   11.947600
13    1.831978    0.590808   17.570000
 7    1.831978    0.590808   19.477600
13    0.248756    1.463243   15.060000
 7    0.248756    1.463243   16.967600
13    0.224332    3.247831   17.570000
 7    0.224332    3.247831   19.477600
13    1.778953    4.154101   15.060000
 7    1.778953    4.154101   16.967600
13    1.831978    0.590808   22.590000
 7    1.831978    0.590808   24.497600
13    0.248756    1.463243   20.080000
 7    0.248756    1.463243   21.987600
13    0.224332    3.247831   22.590000
 7    0.224332    3.247831   24.497600
13    1.778953    4.154101   20.080000
 7    1.778953    4.154101   21.987600
13    4.980879    0.648045    2.510000
 7    4.980879    0.648045    4.417600
13    3.392847    1.506194    0.000000
 7    3.392847    1.506194    1.907600
13    3.364487    3.284537    2.510000
 7    3.364487    3.284537    4.417600
13    4.922330    4.199482    0.000000
 7    4.922330    4.199482    1.907600
13    4.980879    0.648045    7.530000
 7    4.980879    0.648045    9.437600
13    3.392847    1.506194    5.020000
 7    3.392847    1.506194    6.927600
13    3.364487    3.284537    7.530000
 7    3.364487    3.284537    9.437600
13    4.922330    4.199482    5.020000
 7    4.922330    4.199482    6.927600
13    4.980879    0.648045   12.550000
 7    4.980879    0.648045   14.457600
13    3.392847    1.506194   10.040000
 7    3.392847    1.506194   11.947600
13    3.364487    3.284537   12.550000
 7    3.364487    3.284537   14.457600
13    4.922330    4.199482   10.040000
 7    4.922330    4.199482   11.947600
13    4.980879    0.648045   17.570000
 7    4.980879    0.648045   19.477600
13    3.392847    1.506194   15.060000
 7    3.392847    1.506194   16.967600
13    3.364487    3.284537   17.570000
 7    3.364487    3.284537   19.477600
13    4.922330    4.199482   15.060000
 7    4.922330    4.199482   16.967600
13    4.980879    0.648045   22.590000
 7    4.980879    0.648045   24.497600
13    3.392847    1.506194   20.080000
 7    3.392847    1.506194   21.987600
13    3.364487    3.284537   22.590000
 7    3.364487    3.284537   24.497600
13    4.922330    4.199482   20.080000
 7    4.922330    4.199482   21.987600
13    8.134162    0.736858    2.510000
 7    8.134162    0.736858    4.417600
13    6.545489    1.577620    0.000000
 7    6.545489    1.577620    1.907600
13    6.516987    3.352206    2.510000
 7    6.516987    3.352206    4.417600
13    8.081280    4.289799    0.000000
 7    8.081280    4.289799    1.907600
13    8.134162    0.736858    7.530000
 7    8.134162    0.736858    9.437600
13    6.545489    1.577620    5.020000
 7    6.545489    1.577620    6.927600
13    6.516987    3.352206    7.530000
 7    6.516987    3.352206    9.437600
13    8.081280    4.289799    5.020000
 7    8.081280    4.289799    6.927600
13    8.134162    0.736858   12.550000
 7    8.134162    0.736858   14.457600
13    6.545489    1.577620   10.040000
 7    6.545489    1.577620   11.947600
13    6.516987    3.352206   12.550000
 7    6.516987    3.352206   14.457600
13    8.081280    4.289799   10.040000
 7    8.081280    4.289799   11.947600
13    8.134162    0.736858   17.570000
 7    8.134162    0.736858   19.477600
13    6.545489    1.577620   15.060000
 7    6.545489    1.577620   16.967600
13    6.516987    3.352206   17.570000
 7    6.516987    3.352206   19.477600
13    8.081280    4.289799   15.060000
 7    8.081280    4.289799   16.967600
13    8.134162    0.736858   22.590000
 7    8.134162    0.736858   24.497600
13    6.545489    1.577620   20.080000
 7    6.545489    1.577620   21.987600
13    6.516987    3.352206   22.590000
 7    6.516987    3.352206   24.497600
13    8.081280    4.289799   20.080000
 7    8.081280    4.289799   21.987600
13   11.280331    0.858649    2.510000
 7   11.280331    0.858649    4.417600
13    9.699696    1.688934    0.000000
 7    9.699696    1.688934    1.907600
13    9.677240    3.473023    2.510000
 7    9.677240    3.473023    4.417600
13   11.241069    4.451588    0.000000
 7   11.241069    4.451588    1.907600
13   11.280331    0.858649    7.530000
 7   11.280331    0.858649    9.437600
13    9.699696    1.688934    5.020000
 7    9.699696    1.688934    6.927600
13    9.677240    3.473023    7.530000
 7    9.677240    3.473023    9.437600
13   11.241069    4.451588    5.020000
 7   11.241069    4.451588    6.927600
13   11.280331    0.858649   12.550000
 7   11.280331    0.858649   14.457600
13    9.699696    1.688934   10.040000
 7    9.699696    1.688934   11.947600
13    9.677240    3.473023   12.550000
 7    9.677240    3.473023   14.457600
13   11.241069    4.451588   10.040000
 7   11.241069    4.451588   11.947600
13   11.280331    0.858649   17.570000
 7   11.280331    0.858649   19.477600
13    9.699696    1.688934   15.060000
 7    9.699696    1.688934   16.967600
13    9.677240    3.473023   17.570000
 7    9.677240    3.473023   19.477600
13   11.241069    4.451588   15.060000
 7   11.241069    4.451588   16.967600
13   11.280331    0.858649   22.590000
 7   11.280331    0.858649   24.497600
13    9.699696    1.688934   20.080000
 7    9.699696    1.688934   21.987600
13    9.677240    3.473023   22.590000
 7    9.677240    3.473023   24.497600
13   11.241069    4.451588   20.080000
 7   11.241069    4.451588   21.987600
13   14.406718    0.991771    2.510000
 7   14.406718    0.991771    4.417600
13   12.838077    1.831523    0.000000
 7   12.838077    1.831523    1.907600
13   12.819191    3.643869    2.510000
 7   12.819191    3.643869    4.417600
13   14.363580    4.645509    0.000000
 7   14.363580    4.645509    1.907600
13   14.406718    0.991771    7.530000
 7   14.406718    0.991771    9.437600
13   12.838077    1.831523    5.020000
 7   12.838077    1.831523    6.927600
13   12.819191    3.643869    7.530000
 7   12.819191    3.643869    9.437600
13   14.363580    4.645509    5.020000
 7   14.363580    4.645509    6.927600
13   14.406718    0.991771   12.550000
 7   14.406718    0.991771   14.457600
13   12.838077    1.831523   10.040000
 7   12.838077    1.831523   11.947600
13   12.819191    3.643869   12.550000
 7   12.819191    3.643869   14.457600
13   14.363580    4.645509   10.040000
 7   14.363580    4.645509   11.947600
13   14.406718    0.991771   17.570000
 7   14.406718    0.991771   19.477600
13   12.838077    1.831523   15.060000
 7   12.838077    1.831523   16.967600
13   12.819191    3.643869   17.570000
 7   12.819191    3.643869   19.477600
13   14.363580    4.645509   15.060000
 7   14.363580    4.645509   16.967600
13   14.406718    0.991771   22.590000
 7   14.406718    0.991771   24.497600
13   12.838077    1.831523   20.080000
 7   12.838077    1.831523   21.987600
13   12.819191    3.643869   22.590000
 7   12.819191    3.643869   24.497600
13   14.363580    4.645509   20.080000
 7   14.363580    4.645509   21.987600
13   17.516471    1.103720    2.510000
 7   17.516471    1.103720    4.417600
13   15.952441    1.966863    0.000000
 7   15.952441    1.966863    1.907600
13   15.927518    3.802449    2.510000
 7   15.927518    3.802449    4.417600
13   17.460100    4.782779    0.000000
 7   17.460100    4.782779    1.907600
13   17.516471    1.103720    7.530000
 7   17.516471    1.103720    9.437600
13   15.952441    1.966863    5.020000
 7   15.952441    1.966863    6.927600
13   15.927518    3.802449    7.530000
 7   15.927518    3.802449    9.437600
13   17.460100    4.782779    5.020000
 7   17.460100    4.782779    6.927600
13   17.516471    1.103720   12.550000
 7   17.516471    1.103720   14.457600
13   15.952441    1.966863   10.040000
 7   15.952441    1.966863   11.947600
13   15.927518    3.802449   12.550000
 7   15.927518    3.802449   14.457600
13   17.460100    4.782779   10.040000
 7   17.460100    4.782779   11.947600
13   17.516471    1.103720   17.570000
 7   17.516471    1.103720   19.477600
13   15.952441    1.966863   15.060000
 7   15.952441    1.966863   16.967600
13   15.927518    3.802449   17.570000
 7   15.927518    3.802449   19.477600
13   17.460100    4.782779   15.060000
 7   17.460100    4.782779   16.967600
13   17.516471    1.103720   22.590000
 7   17.516471    1.103720   24.497600
13   15.952441    1.966863   20.080000
 7   15.952441    1.966863   21.987600
13   15.927518    3.802449   22.590000
 7   15.927518    3.802449   24.497600
13   17.460100    4.782779   20.080000
 7   17.460100    4.782779   21.987600
13   20.623813    1.181111    2.510000
 7   20.623813    1.181111    4.417600
13   19.057198    2.064342    0.000000
 7   19.057198    2.064342    1.907600
13   19.028060    3.903505    2.510000
 7   19.028060    3.903505    4.417600
13   20.566262    4.854619    0.000000
 7   20.566262    4.854619    1.907600
13   20.623813    1.181111    7.530000
 7   20.623813    1.181111    9.437600
13   19.057198    2.064342    5.020000
 7   19.057198    2.064342    6.927600
13   19.028060    3.903505    7.530000
 7   19.028060    3.903505    9.437600
13   20.566262    4.854619    5.020000
 7   20.566262    4.854619    6.927600
13   20.623813    1.181111   12.550000
 7   20.623813    1.181111   14.457600
13   19.057198    2.064342   10.040000
 7   19.057198    2.064342   11.947600
13   19.028060    3.903505   12.550000
 7   19.028060    3.903505   14.457600
13   20.566262    4.854619   10.040000
 7   20.566262    4.854619   11.947600
13   20.623813    1.181111   17.570000
 7   20.623813    1.181111   19.477600
13   19.057198    2.064342   15.060000
 7   19.057198    2.064342   16.967600
13   19.028060    3.903505   17.570000
 7   19.028060    3.903505   19.477600
13   20.566262    4.854619   15.060000
 7   20.566262    4.854619   16.967600
13   20.623813    1.181111   22.590000
 7   20.623813    1.181111   24.497600
13   19.057198    2.064342   20.080000
 7   19.057198    2.064342   21.987600
13   19.028060    3.903505   22.590000
 7   19.028060    3.903505   24.497600
13   20.566262    4.854619   20.080000
 7   20.566262    4.854619   21.987600
13   23.737369    1.230081    2.510000
 7   23.737369    1.230081    4.417600
13   22.167174    2.124780    0.000000
 7   22.167174    2.124780    1.907600
13   22.139904    3.958555    2.510000
 7   22.139904    3.958555    4.417600
13   23.687253    4.891083    0.000000
 7   23.687253    4.891083    1.907600
13   23.737369    1.230081    7.530000
 7   23.737369    1.230081    9.437600
13   22.167174    2.124780    5.020000
 7   22.167174    2.124780    6.927600
13   22.139904    3.958555    7.530000
 7   22.139904    3.958555    9.437600
13   23.687253    4.891083    5.020000
 7   23.687253    4.891083    6.927600
13   23.737369    1.230081   12.550000
 7   23.737369    1.230081   14.457600
13   22.167174    2.124780   10.040000
 7   22.167174    2.124780   11.947600
13   22.139904    3.958555   12.550000
 7   22.139904    3.958555   14.457600
13   23.687253    4.891083   10.040000
 7   23.687253    4.891083   11.947600
13   23.737369    1.230081   17.570000
 7   23.737369    1.230081   19.477600
13   22.167174    2.124780   15.060000
 7   22.167174    2.124780   16.967600
13   22.139904    3.958555   17.570000
 7   22.139904    3.958555   19.477600
13   23.687253    4.891083   15.060000
 7   23.687253    4.891083   16.967600
13   23.737369    1.230081   22.590000
 7   23.737369    1.230081   24.497600
13   22.167174    2.124780   20.080000
 7   22.167174    2.124780   21.987600
13   22.139904    3.958555   22.590000
 7   22.139904    3.958555   24.497600
13   23.687253    4.891083   20.080000
 7   23.687253    4.891083   21.987600
13    1.750149    5.935882    2.510000
 7    1.750149    5.935882    4.417600
13    0.175572    6.819665    0.000000
 7    0.175572    6.819665    1.907600
13    0.156226    8.608769    2.510000
 7    0.156226    8.608769    4.417600
13    1.702993    9.506943    0.000000
 7    1.702993    9.506943    1.907600
13    1.750149    5.935882    7.530000
 7    1.750149    5.935882    9.437600
13    0.175572    6.819665    5.020000
 7    0.175572    6.819665    6.927600
13    0.156226    8.608769    7.530000
 7    0.156226    8.608769    9.437600
13    1.702993    9.506943    5.020000
 7    1.702993    9.506943    6.927600
13    1.750149    5.935882   12.550000
 7    1.750149    5.935882   14.457600
13    0.175572    6.819665   10.040000
 7    0.175572    6.819665   11.947600
13    0.156226    8.608769   12.550000
 7    0.156226    8.608769   14.457600
13    1.702993    9.506943   10.040000
 7    1.702993    9.506943   11.947600
13    1.750149    5.935882   17.570000
 7    1.750149    5.935882   19.477600
13    0.175572    6.819665   15.060000
 7    0.175572    6.819665   16.967600
13    0.156226    8.608769   17.570000
 7    0.156226    8.608769   19.477600
13    1.702993    9.506943   15.060000
 7    1.702993    9.506943   16.967600
13    1.750149    5.935882   22.590000
 7    1.750149    5.935882   24.497600
13    0.175572    6.819665   20.080000
 7    0.175572    6.819665   21.987600
13    0.156226    8.608769   22.590000
 7    0.156226    8.608769   24.497600
13    1.702993    9.506943   20.080000
 7    1.702993    9.506943   21.987600
13    4.884576    5.970164    2.510000
 7    4.884576    5.970164    4.417600
13    3.298600    6.838600    0.000000
 7    3.298600    6.838600    1.907600
13    3.267724    8.618878    2.510000
 7    3.267724    8.618878    4.417600
13    4.807580    9.516288    0.000000
 7    4.807580    9.516288    1.907600
13    4.884576    5.970164    7.530000
 7    4.884576    5.970164    9.437600
13    3.298600    6.838600    5.020000
 7    3.298600    6.838600    6.927600
13    3.267724    8.618878    7.530000
 7    3.267724    8.618878    9.437600
13    4.807580    9.516288    5.020000
 7    4.807580    9.516288    6.927600
13    4.884576    5.970164   12.550000
 7    4.884576    5.970164   14.457600
13    3.298600    6.838600   10.040000
 7    3.298600    6.838600   11.947600
13    3.267724    8.618878   12.550000
 7    3.267724    8.618878   14.457600
13    4.807580    9.516288   10.040000
 7    4.807580    9.516288   11.947600
13    4.884576    5.970164   17.570000
 7    4.884576    5.970164   19.477600
13    3.298600    6.838600   15.060000
 7    3.298600    6.838600   16.967600
13    3.267724    8.618878   17.570000
 7    3.267724    8.618878   19.477600
13    4.807580    9.516288   15.060000
 7    4.807580    9.516288   16.967600
13    4.884576    5.970164   22.590000
 7    4.884576    5.970164   24.497600
13    3.298600    6.838600   20.080000
 7    3.298600    6.838600   21.987600
13    3.267724    8.618878   22.590000
 7    3.267724    8.618878   24.497600
13    4.807580    9.516288   20.080000
 7    4.807580    9.516288   21.987600
13    8.040713    6.050928    2.510000
 7    8.040713    6.050928    4.417600
13    6.435195    6.881858    0.000000
 7    6.435195    6.881858    1.907600
13    6.383366    8.642692    2.510000
 7    6.383366    8.642692    4.417600
13    7.914160    9.543085    0.000000
 7    7.914160    9.543085    1.907600
13    8.040713    6.050928    7.530000
 7    8.040713    6.050928    9.437600
13    6.435195    6.881858    5.020000
 7    6.435195    6.881858    6.927600
13    6.383366    8.642692    7.530000
 7    6.383366    8.642692    9.437600
13    7.914160    9.543085    5.020000
 7    7.914160    9.543085    6.927600
13    8.040713    6.050928   12.550000
 7    8.040713    6.050928   14.457600
13    6.435195    6.881858   10.040000
 7    6.435195    6.881858   11.947600
13    6.383366    8.642692   12.550000
 7    6.383366    8.642692   14.457600
13    7.914160    9.543085   10.040000
 7    7.914160    9.543085   11.947600
13    8.040713    6.050928   17.570000
 7    8.040713    6.050928   19.477600
13    6.435195    6.881858   15.060000
 7    6.435195    6.881858   16.967600
13    6.383366    8.642692   17.570000
 7    6.383366    8.642692   19.477600
13    7.914160    9.543085   15.060000
 7    7.914160    9.543085   16.967600
13    8.040713    6.050928   22.590000
 7    8.040713    6.050928   24.497600
13    6.435195    6.881858   20.080000
 7    6.435195    6.881858   21.987600
13    6.383366    8.642692   22.590000
 7    6.383366    8.642692   24.497600
13    7.914160    9.543085   20.080000
 7    7.914160    9.543085   21.987600
13   11.212620    6.238351    2.510000
 7   11.212620    6.238351    4.417600
13    9.604074    7.003742    0.000000
 7    9.604074    7.003742    1.907600
13    9.533834    8.732810    2.510000
 7    9.533834    8.732810    4.417600
13   11.091951    9.726778    0.000000
 7   11.091951    9.726778    1.907600
13   11.212620    6.238351    7.530000
 7   11.212620    6.238351    9.437600
13    9.604074    7.003742    5.020000
 7    9.604074    7.003742    6.927600
13    9.533834    8.732810    7.530000
 7    9.533834    8.732810    9.437600
13   11.091951    9.726778    5.020000
 7   11.091951    9.726778    6.927600
13   11.212620    6.238351   12.550000
 7   11.212620    6.238351   14.457600
13    9.604074    7.003742   10.040000
 7    9.604074    7.003742   11.947600
13    9.533834    8.732810   12.550000
 7    9.533834    8.732810   14.457600
13   11.091951    9.726778   10.040000
 7   11.091951    9.726778   11.947600
13   11.212620    6.238351   17.570000
 7   11.212620    6.238351   19.477600
13    9.604074    7.003742   15.060000
 7    9.604074    7.003742   16.967600
13    9.533834    8.732810   17.570000
 7    9.533834    8.732810   19.477600
13   11.091951    9.726778   15.060000
 7   11.091951    9.726778   16.967600
13   11.212620    6.238351   22.590000
 7   11.212620    6.238351   24.497600
13    9.604074    7.003742   20.080000
 7    9.604074    7.003742   21.987600
13    9.533834    8.732810   22.590000
 7    9.533834    8.732810   24.497600
13   11.091951    9.726778   20.080000
 7   11.091951    9.726778   21.987600
13   14.330576    6.488201    2.510000
 7   14.330576    6.488201    4.417600
13   12.763999    7.280296    0.000000
 7   12.763999    7.280296    1.907600
13   12.715781    9.118103    2.510000
 7   12.715781    9.118103    4.417600
13   14.187001   10.262507    0.000000
 7   14.187001   10.262507    1.907600
13   14.330576    6.488201    7.530000
 7   14.330576    6.488201    9.437600
13   12.763999    7.280296    5.020000
 7   12.763999    7.280296    6.927600
13   12.715781    9.118103    7.530000
 7   12.715781    9.118103    9.437600
13   14.187001   10.262507    5.020000
 7   14.187001   10.262507    6.927600
13   14.330576    6.488201   12.550000
 7   14.330576    6.488201   14.457600
13   12.763999    7.280296   10.040000
 7   12.763999    7.280296   11.947600
13   12.715781    9.118103   12.550000
 7   12.715781    9.118103   14.457600
13   14.187001   10.262507   10.040000
 7   14.187001   10.262507   11.947600
13   14.330576    6.488201   17.570000
 7   14.330576    6.488201   19.477600
13   12.763999    7.280296   15.060000
 7   12.763999    7.280296   16.967600
13   12.715781    9.118103   17.570000
 7   12.715781    9.118103   19.477600
13   14.187001   10.262507   15.060000
 7   14.187001   10.262507   16.967600
13   14.330576    6.488201   22.590000
 7   14.330576    6.488201   24.497600
13   12.763999    7.280296   20.080000
 7   12.763999    7.280296   21.987600
13   12.715781    9.118103   22.590000
 7   12.715781    9.118103   24.497600
13   14.187001   10.262507   20.080000
 7   14.187001   10.262507   21.987600
13   17.418870    6.634144    2.510000
 7   17.418870    6.634144    4.417600
13   15.846987    7.508763    0.000000
 7   15.846987    7.508763    1.907600
13   15.778748    9.384954    2.510000
 7   15.778748    9.384954    4.417600
13   17.310319   10.348157    0.000000
 7   17.310319   10.348157    1.907600
13   17.418870    6.634144    7.530000
 7   17.418870    6.634144    9.437600
13   15.846987    7.508763    5.020000
 7   15.846987    7.508763    6.927600
13   15.778748    9.384954    7.530000
 7   15.778748    9.384954    9.437600
13   17.310319   10.348157    5.020000
 7   17.310319   10.348157    6.927600
13   17.418870    6.634144   12.550000
 7   17.418870    6.634144   14.457600
13   15.846987    7.508763   10.040000
 7   15.846987    7.508763   11.947600
13   15.778748    9.384954   12.550000
 7   15.778748    9.384954   14.457600
13   17.310319   10.348157   10.040000
 7   17.310319   10.348157   11.947600
13   17.418870    6.634144   17.570000
 7   17.418870    6.634144   19.477600
13   15.846987    7.508763   15.060000
 7   15.846987    7.508763   16.967600
13   15.778748    9.384954   17.570000
 7   15.778748    9.384954   19.477600
13   17.310319   10.348157   15.060000
 7   17.310319   10.348157   16.967600
13   17.418870    6.634144   22.590000
 7   17.418870    6.634144   24.497600
13   15.846987    7.508763   20.080000
 7   15.846987    7.508763   21.987600
13   15.778748    9.384954   22.590000
 7   15.778748    9.384954   24.497600
13   17.310319   10.348157   20.080000
 7   17.310319   10.348157   21.987600
13   20.531390    6.694042    2.510000
 7   20.531390    6.694042    4.417600
13   18.950419    7.594068    0.000000
 7   18.950419    7.594068    1.907600
13   18.906782    9.439139    2.510000
 7   18.906782    9.439139    4.417600
13   20.466394   10.365856    0.000000
 7   20.466394   10.365856    1.907600
13   20.531390    6.694042    7.530000
 7   20.531390    6.694042    9.437600
13   18.950419    7.594068    5.020000
 7   18.950419    7.594068    6.927600
13   18.906782    9.439139    7.530000
 7   18.906782    9.439139    9.437600
13   20.466394   10.365856    5.020000
 7   20.466394   10.365856    6.927600
13   20.531390    6.694042   12.550000
 7   20.531390    6.694042   14.457600
13   18.950419    7.594068   10.040000
 7   18.950419    7.594068   11.947600
13   18.906782    9.439139   12.550000
 7   18.906782    9.439139   14.457600
13   20.466394   10.365856   10.040000
 7   20.466394   10.365856   11.947600
13   20.531390    6.694042   17.570000
 7   20.531390    6.694042   19.477600
13   18.950419    7.594068   15.060000
 7   18.950419    7.594068   16.967600
13   18.906782    9.439139   17.570000
 7   18.906782    9.439139   19.477600
13   20.466394   10.365856   15.060000
 7   20.466394   10.365856   16.967600
13   20.531390    6.694042   22.590000
 7   20.531390    6.694042   24.497600
13   18.950419    7.594068   20.080000
 7   18.950419    7.594068   21.987600
13   18.906782    9.439139   22.590000
 7   18.906782    9.439139   24.497600
13   20.466394   10.365856   20.080000
 7   20.466394   10.365856   21.987600
13   23.661239    6.720744    2.510000
 7   23.661239    6.720744    4.417600
13   22.080093    7.626089    0.000000
 7   22.080093    7.626089    1.907600
13   22.053869    9.456356    2.510000
 7   22.053869    9.456356    4.417600
13   23.620582   10.373112    0.000000
 7   23.620582   10.373112    1.907600
13   23.661239    6.720744    7.530000
 7   23.661239    6.720744    9.437600
13   22.080093    7.626089    5.020000
 7   22.080093    7.626089    6.927600
13   22.053869    9.456356    7.530000
 7   22.053869    9.456356    9.437600
13   23.620582   10.373112    5.020000
 7   23.620582   10.373112    6.927600
13   23.661239    6.720744   12.550000
 7   23.661239    6.720744   14.457600
13   22.080093    7.626089   10.040000
 7   22.080093    7.626089   11.947600
13   22.053869    9.456356   12.550000
 7   22.053869    9.456356   14.457600
13   23.620582   10.373112   10.040000
 7   23.620582   10.373112   11.947600
13   23.661239    6.720744   17.570000
 7   23.661239    6.720744   19.477600
13   22.080093    7.626089   15.060000
 7   22.080093    7.626089   16.967600
13   22.053869    9.456356   17.570000
 7   22.053869    9.456356   19.477600
13   23.620582   10.373112   15.060000
 7   23.620582   10.373112   16.967600
13   23.661239    6.720744   22.590000
 7   23.661239    6.720744   24.497600
13   22.080093    7.626089   20.080000
 7   22.080093    7.626089   21.987600
13   22.053869    9.456356   22.590000
 7   22.053869    9.456356   24.497600
13   23.620582   10.373112   20.080000
 7   23.620582   10.373112   21.987600
13    1.694103   11.296748    2.510000
 7    1.694103   11.296748    4.417600
13    0.143059   12.192762    0.000000
 7    0.143059   12.192762    1.907600
13    0.152040   13.984669    2.510000
 7    0.152040   13.984669    4.417600
13    1.716707   14.874969    0.000000
 7    1.716707   14.874969    1.907600
13    1.694103   11.296748    7.530000
 7    1.694103   11.296748    9.437600
13    0.143059   12.192762    5.020000
 7    0.143059   12.192762    6.927600
13    0.152040   13.984669    7.530000
 7    0.152040   13.984669    9.437600
13    1.716707   14.874969    5.020000
 7    1.716707   14.874969    6.927600
13    1.694103   11.296748   12.550000
 7    1.694103   11.296748   14.457600
13    0.143059   12.192762   10.040000
 7    0.143059   12.192762   11.947600
13    0.152040   13.984669   12.550000
 7    0.152040   13.984669   14.457600
13    1.716707   14.874969   10.040000
 7    1.716707   14.874969   11.947600
13    1.694103   11.296748   17.570000
 7    1.694103   11.296748   19.477600
13    0.143059   12.192762   15.060000
 7    0.143059   12.192762   16.967600
13    0.152040   13.984669   17.570000
 7    0.152040   13.984669   19.477600
13    1.716707   14.874969   15.060000
 7    1.716707   14.874969   16.967600
13    1.694103   11.296748   22.590000
 7    1.694103   11.296748   24.497600
13    0.143059   12.192762   20.080000
 7    0.143059   12.192762   21.987600
13    0.152040   13.984669   22.590000
 7    0.152040   13.984669   24.497600
13    1.716707   14.874969   20.080000
 7    1.716707   14.874969   21.987600
13    4.790062   11.297750    2.510000
 7    4.790062   11.297750    4.417600
13    3.244663   12.190908    0.000000
 7    3.244663   12.190908    1.907600
13    3.260589   13.976684    2.510000
 7    3.260589   13.976684    4.417600
13    4.832463   14.857422    0.000000
 7    4.832463   14.857422    1.907600
13    4.790062   11.297750    7.530000
 7    4.790062   11.297750    9.437600
13    3.244663   12.190908    5.020000
 7    3.244663   12.190908    6.927600
13    3.260589   13.976684    7.530000
 7    3.260589   13.976684    9.437600
13    4.832463   14.857422    5.020000
 7    4.832463   14.857422    6.927600
13    4.790062   11.297750   12.550000
 7    4.790062   11.297750   14.457600
13    3.244663   12.190908   10.040000
 7    3.244663   12.190908   11.947600
13    3.260589   13.976684   12.550000
 7    3.260589   13.976684   14.457600
13    4.832463   14.857422   10.040000
 7    4.832463   14.857422   11.947600
13    4.790062   11.297750   17.570000
 7    4.790062   11.297750   19.477600
13    3.244663   12.190908   15.060000
 7    3.244663   12.190908   16.967600
13    3.260589   13.976684   17.570000
 7    3.260589   13.976684   19.477600
13    4.832463   14.857422   15.060000
 7    4.832463   14.857422   16.967600
13    4.790062   11.297750   22.590000
 7    4.790062   11.297750   24.497600
13    3.244663   12.190908   20.080000
 7    3.244663   12.190908   21.987600
13    3.260589   13.976684   22.590000
 7    3.260589   13.976684   24.497600
13    4.832463   14.857422   20.080000
 7    4.832463   14.857422   21.987600
13    7.867022   11.300264    2.510000
 7    7.867022   11.300264    4.417600
13    6.334695   12.186979    0.000000
 7    6.334695   12.186979    1.907600
13    6.369411   13.958118    2.510000
 7    6.369411   13.958118    4.417600
13    7.965463   14.807365    0.000000
 7    7.965463   14.807365    1.907600
13    7.867022   11.300264    7.530000
 7    7.867022   11.300264    9.437600
13    6.334695   12.186979    5.020000
 7    6.334695   12.186979    6.927600
13    6.369411   13.958118    7.530000
 7    6.369411   13.958118    9.437600
13    7.965463   14.807365    5.020000
 7    7.965463   14.807365    6.927600
13    7.867022   11.300264   12.550000
 7    7.867022   11.300264   14.457600
13    6.334695   12.186979   10.040000
 7    6.334695   12.186979   11.947600
13    6.369411   13.958118   12.550000
 7    6.369411   13.958118   14.457600
13    7.965463   14.807365   10.040000
 7    7.965463   14.807365   11.947600
13    7.867022   11.300264   17.570000
 7    7.867022   11.300264   19.477600
13    6.334695   12.186979   15.060000
 7    6.334695   12.186979   16.967600
13    6.369411   13.958118   17.570000
 7    6.369411   13.958118   19.477600
13    7.965463   14.807365   15.060000
 7    7.965463   14.807365   16.967600
13    7.867022   11.300264   22.590000
 7    7.867022   11.300264   24.497600
13    6.334695   12.186979   20.080000
 7    6.334695   12.186979   21.987600
13    6.369411   13.958118   22.590000
 7    6.369411   13.958118   24.497600
13    7.965463   14.807365   20.080000
 7    7.965463   14.807365   21.987600
13   10.876778   11.318967    2.510000
 7   10.876778   11.318967    4.417600