CRYSTAL
PRIMVEC
  25.0400000   0.0000000   0.0000000
   0.0000000  27.1065951   0.0000000
   0.0000000   0.0000000  25.1000000
CONVVEC
  25.0400000   0.0000000   0.0000000
   0.0000000  27.1065951   0.0000000
   0.0000000   0.0000000  25.1000000

PRIMCOORD
1600 1
13    1.565000    0.903553    1.907036
 7    1.565000    0.903553    3.814636
13    0.000000    1.807106   -0.692414
 7    0.000000    1.807106    1.215186
13    0.000000    3.614213    1.742309
 7    0.000000    3.614213    3.649909
13    1.565000    4.517766   -0.757996
 7    1.565000    4.517766    1.149604
13    1.565000    0.903553    6.927036
 7    1.565000    0.903553    8.834636
13    0.000000    1.807106    4.327586
 7    0.000000    1.807106    6.235186
13    0.000000    3.614213    6.762309
 7    0.000000    3.614213    8.669909
13    1.565000    4.517766    4.262004
 7    1.565000    4.517766    6.169604
13    1.565000    0.903553   11.947036
 7    1.565000    0.903553   13.854636
13    0.000000    1.807106    9.347586
 7    0.000000    1.807106   11.255186
13    0.000000    3.614213   11.782309
 7    0.000000    3.614213   13.689909
13    1.565000    4.517766    9.282004
 7    1.565000    4.517766   11.189604
13    1.565000    0.903553   16.967036
 7    1.565000    0.903553   18.874636
13    0.000000    1.807106   14.367586
 7    0.000000    1.807106   16.275186
13    0.000000    3.614213   16.802309
 7    0.000000    3.614213   18.709909
13    1.565000    4.517766   14.302004
 7    1.565000    4.517766   16.209604
13    1.565000    0.903553   21.987036
 7    1.565000    0.903553   23.894636
13    0.000000    1.807106   19.387586
 7    0.000000    1.807106   21.295186
13    0.000000    3.614213   21.822309
 7    0.000000    3.614213   23.729909
13    1.565000    4.517766   19.322004
 7    1.565000    4.517766   21.229604
13    4.695000    0.903553    2.044846
 7    4.695000    0.903553    3.952446
13    3.130000    1.807106   -0.572144
 7    3.130000    1.807106    1.335456
13    3.130000    3.614213    1.860086
 7    3.130000    3.614213    3.767686
13    4.695000    4.517766   -0.617924
 7    4.695000    4.517766    1.289676
13    4.695000    0.903553    7.064846
 7    4.695000    0.903553    8.972446
13    3.130000    1.807106    4.447856
 7    3.130000    1.807106    6.355456
13    3.130000    3.614213    6.880086
 7    3.130000    3.614213    8.787686
13    4.695000    4.517766    4.402076
 7    4.695000    4.517766    6.309676
13    4.695000    0.903553   12.084846
 7    4.695000    0.903553   13.992446
13    3.130000    1.807106    9.467856
 7    3.130000    1.807106   11.375456
13    3.130000    3.614213   11.900086
 7    3.130000    3.614213   13.807686
13    4.695000    4.517766    9.422076
 7    4.695000    4.517766   11.329676
13    4.695000    0.903553   17.104846
 7    4.695000    0.903553   19.012446
13    3.130000    1.807106   14.487856
 7    3.130000    1.807106   16.395456
13    3.130000    3.614213   16.920086
 7    3.130000    3.614213   18.827686
13    4.695000    4.517766   14.442076
 7    4.695000    4.517766   16.349676
13    4.695000    0.903553   22.124846
 7    4.695000    0.903553   24.032446
13    3.130000    1.807106   19.507856
 7    3.130000    1.807106   21.415456
13    3.130000    3.614213   21.940086
 7    3.130000    3.614213   23.847686
13    4.695000    4.517766   19.462076
 7    4.695000    4.517766   21.369676
13    7.825000    0.903553    2.222485
 7    7.825000    0.903553    4.130085
13    6.260000    1.807106   -0.409764
 7    6.260000    1.807106    1.497836
13    6.260000    3.614213    2.030432
 7    6.260000    3.614213    3.938032
13    7.825000    4.517766   -0.406634
 7    7.825000    4.517766    1.500966
13    7.825000    0.903553    7.242485
 7    7.825000    0.903553    9.150085
13    6.260000    1.807106    4.610236
 7    6.260000    1.807106    6.517836
13    6.260000    3.614213    7.050432
 7    6.260000    3.614213    8.958032
13    7.825000    4.517766    4.613366
 7    7.825000    4.517766    6.520966
13    7.825000    0.903553   12.262485
 7    7.825000    0.903553   14.170085
13    6.260000    1.807106    9.630236
 7    6.260000    1.807106   11.537836
13    6.260000    3.614213   12.070432
 7    6.260000    3.614213   13.978032
13    7.825000    4.517766    9.633366
 7    7.825000    4.517766   11.540966
13    7.825000    0.903553   17.282485
 7    7.825000    0.903553   19.190085
13    6.260000    1.807106   14.650236
 7    6.260000    1.807106   16.557836
13    6.260000    3.614213   17.090432
 7    6.260000    3.614213   18.998032
13    7.825000    4.517766   14.653366
 7    7.825000    4.517766   16.560966
13    7.825000    0.903553   22.302485
 7    7.825000    0.903553   24.210085
13    6.260000    1.807106   19.670236
 7    6.260000    1.807106   21.577836
13    6.260000    3.614213   22.110432
 7    6.260000    3.614213   24.018032
13    7.825000    4.517766   19.673366
 7    7.825000    4.517766   21.580966
13   10.955000    0.903553    2.434980
 7   10.955000    0.903553    4.342580
13    9.390000    1.807106   -0.200279
 7    9.390000    1.807106    1.707321
13    9.390000    3.614213    2.268925
 7    9.390000    3.614213    4.176525
13   10.955000    4.517766   -0.110869
 7   10.955000    4.517766    1.796731
13   10.955000    0.903553    7.454980
 7   10.955000    0.903553    9.362580
13    9.390000    1.807106    4.819721
 7    9.390000    1.807106    6.727321
13    9.390000    3.614213    7.288925
 7    9.390000    3.614213    9.196525
13   10.955000    4.517766    4.909131
 7   10.955000    4.517766    6.816731
13   10.955000    0.903553   12.474980
 7   10.955000    0.903553   14.382580
13    9.390000    1.807106    9.839721
 7    9.390000    1.807106   11.747321
13    9.390000    3.614213   12.308925
 7    9.390000    3.614213   14.216525
13   10.955000    4.517766    9.929131
 7   10.955000    4.517766   11.836731
13   10.955000    0.903553   17.494980
 7   10.955000    0.903553   19.402580
13    9.390000    1.807106   14.859721
 7    9.390000    1.807106   16.767321
13    9.390000    3.614213   17.328925
 7    9.390000    3.614213   19.236525
13   10.955000    4.517766   14.949131
 7   10.955000    4.517766   16.856731
13   10.955000    0.903553   22.514980
 7   10.955000    0.903553   24.422580
13    9.390000    1.807106   19.879721
 7    9.390000    1.807106   21.787321
13    9.390000    3.614213   22.348925
 7    9.390000    3.614213   24.256525
13   10.955000    4.517766   19.969131
 7   10.955000    4.517766   21.876731
13   14.085000    0.903553    2.658392
 7   14.085000    0.903553    4.565992
13   12.520000    1.807106    0.040724
 7   12.520000    1.807106    1.948324
13   12.520000    3.614213    2.559480
 7   12.520000    3.614213    4.467080
13   14.085000    4.517766    0.217129
 7   14.085000    4.517766    2.124729
13   14.085000    0.903553    7.678392
 7   14.085000    0.903553    9.585992
13   12.520000    1.807106    5.060724
 7   12.520000    1.807106    6.968324
13   12.520000    3.614213    7.579480
 7   12.520000    3.614213    9.487080
13   14.085000    4.517766    5.237129
 7   14.085000    4.517766    7.144729
13   14.085000    0.903553   12.698392
 7   14.085000    0.903553   14.605992
13   12.520000    1.807106   10.080724
 7   12.520000    1.807106   11.988324
13   12.520000    3.614213   12.599480
 7   12.520000    3.614213   14.507080
13   14.085000    4.517766   10.257129
 7   14.085000    4.517766   12.164729
13   14.085000    0.903553   17.718392
 7   14.085000    0.903553   19.625992
13   12.520000    1.807106   15.100724
 7   12.520000    1.807106   17.008324
13   12.520000    3.614213   17.619480
 7   12.520000    3.614213   19.527080
13   14.085000    4.517766   15.277129
 7   14.085000    4.517766   17.184729
13   14.085000    0.903553   22.738392
 7   14.085000    0.903553   24.645992
13   12.520000    1.807106   20.120724
 7   12.520000    1.807106   22.028324
13   12.520000    3.614213   22.639480
 7   12.520000    3.614213   24.547080
13   14.085000    4.517766   20.297129
 7   14.085000    4.517766   22.204729
13   17.215000    0.903553    2.861011
 7   17.215000    0.903553    4.768611
13   15.650000    1.807106    0.274734
 7   15.650000    1.807106    2.182334
13   15.650000    3.614213    2.837995
 7   15.650000    3.614213    4.745595
13   17.215000    4.517766    0.486325
 7   17.215000    4.517766    2.393925
13   17.215000    0.903553    7.881011
 7   17.215000    0.903553    9.788611
13   15.650000    1.807106    5.294734
 7   15.650000    1.807106    7.202334
13   15.650000    3.614213    7.857995
 7   15.650000    3.614213    9.765595
13   17.215000    4.517766    5.506325
 7   17.215000    4.517766    7.413925
13   17.215000    0.903553   12.901011
 7   17.215000    0.903553   14.808611
13   15.650000    1.807106   10.314734
 7   15.650000    1.807106   12.222334
13   15.650000    3.614213   12.877995
 7   15.650000    3.614213   14.785595
13   17.215000    4.517766   10.526325
 7   17.215000    4.517766   12.433925
13   17.215000    0.903553   17.921011
 7   17.215000    0.903553   19.828611
13   15.650000    1.807106   15.334734
 7   15.650000    1.807106   17.242334
13   15.650000    3.614213   17.897995
 7   15.650000    3.614213   19.805595
13   17.215000    4.517766   15.546325
 7   17.215000    4.517766   17.453925
13   17.215000    0.903553   22.941011
 7   17.215000    0.903553   24.848611
13   15.650000    1.807106   20.354734
 7   15.650000    1.807106   22.262334
13   15.650000    3.614213   22.917995
 7   15.650000    3.614213   24.825595
13   17.215000    4.517766   20.566325
 7   17.215000    4.517766   22.473925
13   20.345000    0.903553    3.025174
 7   20.345000    0.903553    4.932774
13   18.780000    1.807106    0.468960
 7   18.780000    1.807106    2.376560
13   18.780000    3.614213    3.053219
 7   18.780000    3.614213    4.960819
13   20.345000    4.517766    0.671009
 7   20.345000    4.517766    2.578609
13   20.345000    0.903553    8.045174
 7   20.345000    0.903553    9.952774
13   18.780000    1.807106    5.488960
 7   18.780000    1.807106    7.396560
13   18.780000    3.614213    8.073219
 7   18.780000    3.614213    9.980819
13   20.345000    4.517766    5.691009
 7   20.345000    4.517766    7.598609
13   20.345000    0.903553   13.065174
 7   20.345000    0.903553   14.972774
13   18.780000    1.807106   10.508960
 7   18.780000    1.807106   12.416560
13   18.780000    3.614213   13.093219
 7   18.780000    3.614213   15.000819
13   20.345000    4.517766   10.711009
 7   20.345000    4.517766   12.618609
13   20.345000    0.903553   18.085174
 7   20.345000    0.903553   19.992774
13   18.780000    1.807106   15.528960
 7   18.780000    1.807106   17.436560
13   18.780000    3.614213   18.113219
 7   18.780000    3.614213   20.020819
13   20.345000    4.517766   15.731009
 7   20.345000    4.517766   17.638609
13   20.345000    0.903553   23.105174
 7   20.345000    0.903553   25.012774
13   18.780000    1.807106   20.548960
 7   18.780000    1.807106   22.456560
13   18.780000    3.614213   23.133219
 7   18.780000    3.614213   25.040819
13   20.345000    4.517766   20.751009
 7   20.345000    4.517766   22.658609
13   23.475000    0.903553    3.150898
 7   23.475000    0.903553    5.058498
13   21.910000    1.807106    0.616258
 7   21.910000    1.807106    2.523858
13   21.910000    3.614213    3.203907
 7   21.910000    3.614213    5.111507
13   23.475000    4.517766    0.793352
 7   23.475000    4.517766    2.700952
13   23.475000    0.903553    8.170898
 7   23.475000    0.903553   10.078498
13   21.910000    1.807106    5.636258
 7   21.910000    1.807106    7.543858
13   21.910000    3.614213    8.223907
 7   21.910000    3.614213   10.131507
13   23.475000    4.517766    5.813352
 7   23.475000    4.517766    7.720952
13   23.475000    0.903553   13.190898
 7   23.475000    0.903553   15.098498
13   21.910000    1.807106   10.656258
 7   21.910000    1.807106   12.563858
13   21.910000    3.614213   13.243907
 7   21.910000    3.614213   15.151507
13   23.475000    4.517766   10.833352
 7   23.475000    4.517766   12.740952
13   23.475000    0.903553   18.210898
 7   23.475000    0.903553   20.118498
13   21.910000    1.807106   15.676258
 7   21.910000    1.807106   17.583858
13   21.910000    3.614213   18.263907
 7   21.910000    3.614213   20.171507
13   23.475000    4.517766   15.853352
 7   23.475000    4.517766   17.760952
13   23.475000    0.903553   23.230898
 7   23.475000    0.903553   25.138498
13   21.910000    1.807106   20.696258
 7   21.910000    1.807106   22.603858
13   21.910000    3.614213   23.283907
 7   21.910000    3.614213   25.191507
13   23.475000    4.517766   20.873352
 7   23.475000    4.517766   22.780952
13    1.565000    6.324872    1.652971
 7    1.565000    6.324872    3.560571
13    0.000000    7.228425   -0.952624
 7    0.000000    7.228425    0.954976
13    0.000000    9.035532    1.448500
 7    0.000000    9.035532    3.356100
13    1.565000    9.939085   -1.099211
 7    1.565000    9.939085    0.808389
13    1.565000    6.324872    6.672971
 7    1.565000    6.324872    8.580571
13    0.000000    7.228425    4.067376
 7    0.000000    7.228425    5.974976
13    0.000000    9.035532    6.468500
 7    0.000000    9.035532    8.376100
13    1.565000    9.939085    3.920789
 7    1.565000    9.939085    5.828389
13    1.565000    6.324872   11.692971
 7    1.565000    6.324872   13.600571
13    0.000000    7.228425    9.087376
 7    0.000000    7.228425   10.994976
13    0.000000    9.035532   11.488500
 7    0.000000    9.035532   13.396100
13    1.565000    9.939085    8.940789
 7    1.565000    9.939085   10.848389
13    1.565000    6.324872   16.712971
 7    1.565000    6.324872   18.620571
13    0.000000    7.228425   14.107376
 7    0.000000    7.228425   16.014976
13    0.000000    9.035532   16.508500
 7    0.000000    9.035532   18.416100
13    1.565000    9.939085   13.960789
 7    1.565000    9.939085   15.868389
13    1.565000    6.324872   21.732971
 7    1.565000    6.324872   23.640571
13    0.000000    7.228425   19.127376
 7    0.000000    7.228425   21.034976
13    0.000000    9.035532   21.528500
 7    0.000000    9.035532   23.436100
13    1.565000    9.939085   18.980789
 7    1.565000    9.939085   20.888389
13    4.695000    6.324872    1.782700
 7    4.695000    6.324872    3.690300
13    3.130000    7.228425   -0.860682
 7    3.130000    7.228425    1.046918
13    3.130000    9.035532    1.512697
 7    3.130000    9.035532    3.420297
13    4.695000    9.939085   -1.035305
 7    4.695000    9.939085    0.872295
13    4.695000    6.324872    6.802700
 7    4.695000    6.324872    8.710300
13    3.130000    7.228425    4.159318
 7    3.130000    7.228425    6.066918
13    3.130000    9.035532    6.532697
 7    3.130000    9.035532    8.440297
13    4.695000    9.939085    3.984695
 7    4.695000    9.939085    5.892295
13    4.695000    6.324872   11.822700
 7    4.695000    6.324872   13.730300
13    3.130000    7.228425    9.179318
 7    3.130000    7.228425   11.086918
13    3.130000    9.035532   11.552697
 7    3.130000    9.035532   13.460297
13    4.695000    9.939085    9.004695
 7    4.695000    9.939085   10.912295
13    4.695000    6.324872   16.842700
 7    4.695000    6.324872   18.750300
13    3.130000    7.228425   14.199318
 7    3.130000    7.228425   16.106918
13    3.130000    9.035532   16.572697
 7    3.130000    9.035532   18.480297
13    4.695000    9.939085   14.024695
 7    4.695000    9.939085   15.932295
13    4.695000    6.324872   21.862700
 7    4.695000    6.324872   23.770300
13    3.130000    7.228425   19.219318
 7    3.130000    7.228425   21.126918
13    3.130000    9.035532   21.592697
 7    3.130000    9.035532   23.500297
13    4.695000    9.939085   19.044695
 7    4.695000    9.939085   20.952295
13    7.825000    6.324872    2.003250
 7    7.825000    6.324872    3.910850
13    6.260000    7.228425   -0.700900
 7    6.260000    7.228425    1.206700
13    6.260000    9.035532    1.635885
 7    6.260000    9.035532    3.543485
13    7.825000    9.939085   -0.888645
 7    7.825000    9.939085    1.018955
13    7.825000    6.324872    7.023250
 7    7.825000    6.324872    8.930850
13    6.260000    7.228425    4.319100
 7    6.260000    7.228425    6.226700
13    6.260000    9.035532    6.655885
 7    6.260000    9.035532    8.563485
13    7.825000    9.939085    4.131355
 7    7.825000    9.939085    6.038955
13    7.825000    6.324872   12.043250
 7    7.825000    6.324872   13.950850
13    6.260000    7.228425    9.339100
 7    6.260000    7.228425   11.246700
13    6.260000    9.035532   11.675885
 7    6.260000    9.035532   13.583485
13    7.825000    9.939085    9.151355
 7    7.825000    9.939085   11.058955
13    7.825000    6.324872   17.063250
 7    7.825000    6.324872   18.970850
13    6.260000    7.228425   14.359100
 7    6.260000    7.228425   16.266700
13    6.260000    9.035532   16.695885
 7    6.260000    9.035532   18.603485
13    7.825000    9.939085   14.171355
 7    7.825000    9.939085   16.078955
13    7.825000    6.324872   22.083250
 7    7.825000    6.324872   23.990850
13    6.260000    7.228425   19.379100
 7    6.260000    7.228425   21.286700
13    6.260000    9.035532   21.715885
 7    6.260000    9.035532   23.623485
13    7.825000    9.939085   19.191355
 7    7.825000    9.939085   21.098955
13   10.955000    6.324872    2.364512
 7   10.955000    6.324872    4.272112
13    9.390000    7.228425   -0.399901
 7    9.390000    7.228425    1.507699
13    9.390000    9.035532    1.933236
 7    9.390000    9.035532    3.840836
13   10.955000    9.939085   -0.374932
 7   10.955000    9.939085    1.532668
13   10.955000    6.324872    7.384512
 7   10.955000    6.324872    9.292112
13    9.390000    7.228425    4.620099
 7    9.390000    7.228425    6.527699
13    9.390000    9.035532    6.953236
 7    9.390000    9.035532    8.860836
13   10.955000    9.939085    4.645068
 7   10.955000    9.939085    6.552668
13   10.955000    6.324872   12.404512
 7   10.955000    6.324872   14.312112
13    9.390000    7.228425    9.640099
 7    9.390000    7.228425   11.547699
13    9.390000    9.035532   11.973236
 7    9.390000    9.035532   13.880836
13   10.955000    9.939085    9.665068
 7   10.955000    9.939085   11.572668
13   10.955000    6.324872   17.424512
 7   10.955000    6.324872   19.332112
13    9.390000    7.228425   14.660099
 7    9.390000    7.228425   16.567699
13    9.390000    9.035532   16.993236
 7    9.390000    9.035532   18.900836
13   10.955000    9.939085   14.685068
 7   10.955000    9.939085   16.592668
13   10.955000    6.324872   22.444512
 7   10.955000    6.324872   24.352112
13    9.390000    7.228425   19.680099
 7    9.390000    7.228425   21.587699
13    9.390000    9.035532   22.013236
 7    9.390000    9.035532   23.920836
13   10.955000    9.939085   19.705068
 7   10.955000    9.939085   21.612668
13   14.085000    6.324872    2.791301
 7   14.085000    6.324872    4.698901
13   12.520000    7.228425    0.086727
 7   12.520000    7.228425    1.994327
13   12.520000    9.035532    2.648734
 7   12.520000    9.035532    4.556334
13   14.085000    9.939085    0.632141
 7   14.085000    9.939085    2.539741
13   14.085000    6.324872    7.811301
 7   14.085000    6.324872    9.718901
13   12.520000    7.228425    5.106727
 7   12.520000    7.228425    7.014327
13   12.520000    9.035532    7.668734
 7   12.520000    9.035532    9.576334
13   14.085000    9.939085    5.652141
 7   14.085000    9.939085    7.559741
13   14.085000    6.324872   12.831301
 7   14.085000    6.324872   14.738901
13   12.520000    7.228425   10.126727
 7   12.520000    7.228425   12.034327
13   12.520000    9.035532   12.688734
 7   12.520000    9.035532   14.596334
13   14.085000    9.939085   10.672141
 7   14.085000    9.939085   12.579741
13   14.085000    6.324872   17.851301
 7   14.085000    6.324872   19.758901
13   12.520000    7.228425   15.146727
 7   12.520000    7.228425   17.054327
13   12.520000    9.035532   17.708734
 7   12.520000    9.035532   19.616334
13   14.085000    9.939085   15.692141
 7   14.085000    9.939085   17.599741
13   14.085000    6.324872   22.871301
 7   14.085000    6.324872   24.778901
13   12.520000    7.228425   20.166727
 7   12.520000    7.228425   22.074327
13   12.520000    9.035532   22.728734
 7   12.520000    9.035532   24.636334
13   14.085000    9.939085   20.712141
 7   14.085000    9.939085   22.619741
13   17.215000    6.324872    3.103763
 7   17.215000    6.324872    5.011363
13   15.650000    7.228425    0.521718
 7   15.650000    7.228425    2.429318
13   15.650000    9.035532    3.220010
 7   15.650000    9.035532    5.127610
13   17.215000    9.939085    0.954310
 7   17.215000    9.939085    2.861910
13   17.215000    6.324872    8.123763
 7   17.215000    6.324872   10.031363
13   15.650000    7.228425    5.541718
 7   15.650000    7.228425    7.449318
13   15.650000    9.035532    8.240010
 7   15.650000    9.035532   10.147610
13   17.215000    9.939085    5.974310
 7   17.215000    9.939085    7.881910
13   17.215000    6.324872   13.143763
 7   17.215000    6.324872   15.051363
13   15.650000    7.228425   10.561718
 7   15.650000    7.228425   12.469318
13   15.650000    9.035532   13.260010
 7   15.650000    9.035532   15.167610
13   17.215000    9.939085   10.994310
 7   17.215000    9.939085   12.901910
13   17.215000    6.324872   18.163763
 7   17.215000    6.324872   20.071363
13   15.650000    7.228425   15.581718
 7   15.650000    7.228425   17.489318
13   15.650000    9.035532   18.280010
 7   15.650000    9.035532   20.187610
13   17.215000    9.939085   16.014310
 7   17.215000    9.939085   17.921910
13   17.215000    6.324872   23.183763
 7   17.215000    6.324872   25.091363
13   15.650000    7.228425   20.601718
 7   15.650000    7.228425   22.509318
13   15.650000    9.035532   23.300010
 7   15.650000    9.035532   25.207610
13   17.215000    9.939085   21.034310
 7   17.215000    9.939085   22.941910
13   20.345000    6.324872    3.287846
 7   20.345000    6.324872    5.195446
13   18.780000    7.228425    0.765037
 7   18.780000    7.228425    2.672637
13   18.780000    9.035532    3.435678
 7   18.780000    9.035532    5.343278
13   20.345000    9.939085    1.061557
 7   20.345000    9.939085    2.969157
13   20.345000    6.324872    8.307846
 7   20.345000    6.324872   10.215446
13   18.780000    7.228425    5.785037
 7   18.780000    7.228425    7.692637
13   18.780000    9.035532    8.455678
 7   18.780000    9.035532   10.363278
13   20.345000    9.939085    6.081557
 7   20.345000    9.939085    7.989157
13   20.345000    6.324872   13.327846
 7   20.345000    6.324872   15.235446
13   18.780000    7.228425   10.805037
 7   18.780000    7.228425   12.712637
13   18.780000    9.035532   13.475678
 7   18.780000    9.035532   15.383278
13   20.345000    9.939085   11.101557
 7   20.345000    9.939085   13.009157
13   20.345000    6.324872   18.347846
 7   20.345000    6.324872   20.255446
13   18.780000    7.228425   15.825037
 7   18.780000    7.228425   17.732637
13   18.780000    9.035532   18.495678
 7   18.780000    9.035532   20.403278
13   20.345000    9.939085   16.121557
 7   20.345000    9.939085   18.029157
13   20.345000    6.324872   23.367846
 7   20.345000    6.324872   25.275446
13   18.780000    7.228425   20.845037
 7   18.780000    7.228425   22.752637
13   18.780000    9.035532   23.515678
 7   18.780000    9.035532   25.423278
13   20.345000    9.939085   21.141557
 7   20.345000    9.939085   23.049157
13   23.475000    6.324872    3.398047
 7   23.475000    6.324872    5.305647
13   21.910000    7.228425    0.896483
 7   21.910000    7.228425    2.804083
13   21.910000    9.035532    3.532770
 7   21.910000    9.035532    5.440370
13   23.475000    9.939085    1.113020
 7   23.475000    9.939085    3.020620
13   23.475000    6.324872    8.418047
 7   23.475000    6.324872   10.325647
13   21.910000    7.228425    5.916483
 7   21.910000    7.228425    7.824083
13   21.910000    9.035532    8.552770
 7   21.910000    9.035532   10.460370
13   23.475000    9.939085    6.133020
 7   23.475000    9.939085    8.040620
13   23.475000    6.324872   13.438047
 7   23.475000    6.324872   15.345647
13   21.910000    7.228425   10.936483
 7   21.910000    7.228425   12.844083
13   21.910000    9.035532   13.572770
 7   21.910000    9.035532   15.480370
13   23.475000    9.939085   11.153020
 7   23.475000    9.939085   13.060620
13   23.475000    6.324872   18.458047
 7   23.475000    6.324872   20.365647
13   21.910000    7.228425   15.956483
 7   21.910000    7.228425   17.864083
13   21.910000    9.035532   18.592770
 7   21.910000    9.035532   20.500370
13   23.475000    9.939085   16.173020
 7   23.475000    9.939085   18.080620
13   23.475000    6.324872   23.478047
 7   23.475000    6.324872   25.385647
13   21.910000    7.228425   20.976483
 7   21.910000    7.228425   22.884083
13   21.910000    9.035532   23.612770
 7   21.910000    9.035532   25.520370
13   23.475000    9.939085   21.193020
 7   23.475000    9.939085   23.100620
13    1.565000   11.746191    1.274429
 7    1.565000   11.746191    3.182029
13    0.000000   12.649744   -1.298218
 7    0.000000   12.649744    0.609382
13    0.000000   14.456851    1.093653
 7    0.000000   14.456851    3.001253
13    1.565000   15.360404   -1.503911
 7    1.565000   15.360404    0.403689
13    1.565000   11.746191    6.294429
 7    1.565000   11.746191    8.202029
13    0.000000   12.649744    3.721782
 7    0.000000   12.649744    5.629382
13    0.000000   14.456851    6.113653
 7    0.000000   14.456851    8.021253
13    1.565000   15.360404    3.516089
 7    1.565000   15.360404    5.423689
13    1.565000   11.746191   11.314429
 7    1.565000   11.746191   13.222029
13    0.000000   12.649744    8.741782
 7    0.000000   12.649744   10.649382
13    0.000000   14.456851   11.133653
 7    0.000000   14.456851   13.041253
13    1.565000   15.360404    8.536089
 7    1.565000   15.360404   10.443689
13    1.565000   11.746191   16.334429
 7    1.565000   11.746191   18.242029
13    0.000000   12.649744   13.761782
 7    0.000000   12.649744   15.669382
13    0.000000   14.456851   16.153653
 7    0.000000   14.456851   18.061253
13    1.565000   15.360404   13.556089
 7    1.565000   15.360404   15.463689
13    1.565000   11.746191   21.354429
 7    1.565000   11.746191   23.262029
13    0.000000   12.649744   18.781782
 7    0.000000   12.649744   20.689382
13    0.000000   14.456851   21.173653
 7    0.000000   14.456851   23.081253
13    1.565000   15.360404   18.576089
 7    1.565000   15.360404   20.483689
13    4.695000   11.746191    1.282748
 7    4.695000   11.746191    3.190348
13    3.130000   12.649744   -1.313421
 7    3.130000   12.649744    0.594179
13    3.130000   14.456851    1.039114
 7    3.130000   14.456851    2.946714
13    4.695000   15.360404   -1.599471
 7    4.695000   15.360404    0.308129
13    4.695000   11.746191    6.302748
 7    4.695000   11.746191    8.210348
13    3.130000   12.649744    3.706579
 7    3.130000   12.649744    5.614179
13    3.130000   14.456851    6.059114
 7    3.130000   14.456851    7.966714
13    4.695000   15.360404    3.420529
 7    4.695000   15.360404    5.328129
13    4.695000   11.746191   11.322748
 7    4.695000   11.746191   13.230348
13    3.130000   12.649744    8.726579
 7    3.130000   12.649744   10.634179
13    3.130000   14.456851   11.079114
 7    3.130000   14.456851   12.986714
13    4.695000   15.360404    8.440529
 7    4.695000   15.360404   10.348129
13    4.695000   11.746191   16.342748
 7    4.695000   11.746191   18.250348
13    3.130000   12.649744   13.746579
 7    3.130000   12.649744   15.654179
13    3.130000   14.456851   16.099114
 7    3.130000   14.456851   18.006714
13    4.695000   15.360404   13.460529
 7    4.695000   15.360404   15.368129
13    4.695000   11.746191   21.362748
 7    4.695000   11.746191   23.270348
13    3.130000   12.649744   18.766579
 7    3.130000   12.649744   20.674179
13    3.130000   14.456851   21.119114
 7    3.130000   14.456851   23.026714
13    4.695000   15.360404   18.480529
 7    4.695000   15.360404   20.388129
13    7.825000   11.746191    1.303511
 7    7.825000   11.746191    3.211111
13    6.260000   12.649744   -1.345055
 7    6.260000   12.649744    0.562545
13    6.260000   14.456851    0.931879
 7    6.260000   14.456851    2.839479
13    7.825000   15.360404   -1.796465
 7    7.825000   15.360404    0.111135
13    7.825000   11.746191    6.323511
 7    7.825000   11.746191    8.231111
13    6.260000   12.649744    3.674945
 7    6.260000   12.649744    5.582545
13    6.260000   14.456851    5.951879
 7    6.260000   14.456851    7.859479
13    7.825000   15.360404    3.223535
 7    7.825000   15.360404    5.131135
13    7.825000   11.746191   11.343511
 7    7.825000   11.746191   13.251111
13    6.260000   12.649744    8.694945
 7    6.260000   12.649744   10.602545
13    6.260000   14.456851   10.971879
 7    6.260000   14.456851   12.879479
13    7.825000   15.360404    8.243535
 7    7.825000   15.360404   10.151135
13    7.825000   11.746191   16.363511
 7    7.825000   11.746191   18.271111
13    6.260000   12.649744   13.714945
 7    6.260000   12.649744   15.622545
13    6.260000   14.456851   15.991879
 7    6.260000   14.456851   17.899479
13    7.825000   15.360404   13.263535
 7    7.825000   15.360404   15.171135
13    7.825000   11.746191   21.383511
 7    7.825000   11.746191   23.291111
13    6.260000   12.649744   18.734945
 7    6.260000   12.649744   20.642545
13    6.260000   14.456851   21.011879
 7    6.260000   14.456851   22.919479
13    7.825000   15.360404   18.283535
 7    7.825000   15.360404   20.191135
13   10.955000   11.746191    1.445364
 7   10.955000   11.746191    3.352964