CRYSTAL
PRIMVEC
  32.4000000   0.0000000   0.0000000
   0.0000000  32.4000000   0.0000000
   0.0000000   0.0000000  32.4000000
CONVVEC
  32.4000000   0.0000000   0.0000000
   0.0000000  32.4000000   0.0000000
   0.0000000   0.0000000  32.4000000

PRIMCOORD
2011 1
13    0.042815    0.055837    0.081157
13    0.049668    2.084017    2.113162
13    2.071957    0.069188    2.118904
13    2.077206    2.094414    0.110041
13    0.041596    0.055021    4.121519
13    0.045113    2.080152    6.148756
13    2.068493    0.065352    6.154368
13    2.080680    2.099758    4.153909
13    0.030505    0.042450    8.153077
13    0.025523    2.060011   10.174156
13    2.050982    0.042354   10.178728
13    2.071759    2.090310    8.181965
13    0.007149    0.014568   12.181779
13   -0.007932    2.023193   14.201458
13    2.019650   -0.000976   14.204664
13    2.040962    2.053542   12.198087
13   -0.019202   -0.019122   16.219473
13   -0.033234    1.990966   18.243595
13    1.994375   -0.039932   18.246781
13    1.999302    1.999443   16.226126
13   -0.031141   -0.038435   20.267120
13   -0.033094    1.983467   22.290173
13    1.992414   -0.049794   22.294717
13    1.984220    1.971833   20.272337
13   -0.026104   -0.037992   24.313332
13   -0.019418    1.992361   26.330288
13    2.003994   -0.039640   26.335889
13    1.996900    1.978404   24.313177
13   -0.014970   -0.028388   28.354479
13   -0.006404    2.003832   30.367693
13    2.015899   -0.025961   30.373440
13    2.013456    1.994357   28.347488
13    4.096658    0.079028    0.113723
13    4.108157    2.114157    2.157098
13    6.123864    0.098395    2.157183
13    6.128073    2.121477    0.153173
13    4.100023    0.085238    4.157618
13    4.110619    2.119274    6.196503
13    6.125658    0.103054    6.195774
13    6.137804    2.139573    4.208053
13    4.092575    0.074671    8.185369
13    4.093817    2.097447   10.212368
13    6.111647    0.078172   10.211799
13    6.137383    2.141313    8.238965
13    4.065884    0.033240   12.201021
13    4.047412    2.031503   14.219078
13    6.074153    0.007237   14.220355
13    6.106987    2.092253   12.235954
13    4.028700   -0.028242   16.228880
13    4.007185    1.965897   18.255019
13    6.040257   -0.063783   18.257571
13    6.046015    1.984739   16.241420
13    4.013019   -0.061159   20.276350
13    4.011650    1.959057   22.298838
13    6.040678   -0.074333   22.304421
13    6.027322    1.936095   20.286473
13    4.022113   -0.055047   24.319350
13    4.031584    1.979925   26.330288
13    6.055750   -0.052882   26.338799
13    6.048051    1.958251   24.317301
13    4.036189   -0.037014   28.354718
13    4.046150    1.999108   30.361569
13    6.068101   -0.031406   30.370725
13    6.066671    1.986524   28.342380
13    8.141542    0.103687    0.148954
13    8.154758    2.148378    2.208505
13   10.163429    0.126949    2.195435
13   10.165913    2.147076    0.195063
13    8.148383    0.120977    4.201145
13    8.164139    2.170680    6.261544
13   10.168491    0.144503    6.242399
13   10.177248    2.181167    4.266925
13    8.146901    0.119301    8.230123
13    8.157406    2.160115   10.276118
13   10.161656    0.125599   10.254999
13   10.184184    2.204555    8.313067
13    8.123435    0.065873   12.230329
13    8.106705    2.054675   14.249444
13   10.128578    0.023066   14.240989
13   10.165952    2.158267   12.297366
13    8.079614   -0.040447   16.241572
13    8.051644    1.923206   18.273252
13   10.093977   -0.095474   18.271117
13   10.098739    1.964470   16.262790
13    8.062839   -0.092996   20.289239
13    8.063934    1.927255   22.309415
13   10.097381   -0.101477   22.315231
13   10.082848    1.889302   20.305084
13    8.075459   -0.074663   24.325976
13    8.086309    1.967318   26.327446
13   10.111463   -0.065010   26.340534
13   10.106018    1.938802   24.318565
13    8.089553   -0.045356   28.353795
13    8.098919    1.995233   30.352971
13   10.120965   -0.035706   30.367173
13   10.120787    1.980326   28.334775
13   12.175022    0.123235    0.177398
13   12.184108    2.176598    2.252297
13   14.189921    0.145105    2.220247
13   14.190700    2.162959    0.221628
13   12.180777    0.151607    4.239443
13   12.193054    2.217682    6.324137
13   14.192708    0.172958    6.275329
13   14.195839    2.208473    4.307062
13   12.182657    0.162826    8.274893
13   12.194752    2.230651   10.351775
13   14.191291    0.163038   10.289697
13   14.200285    2.250772    8.370568
13   12.169749    0.105430   12.263812
13   12.161633    2.095917   14.291297
13   14.177722    0.039420   14.258394
13   14.195798    2.220883   12.357412
13   12.136601   -0.052862   16.254600
13   12.113636    1.869092   18.295772
13   14.161729   -0.121750   18.282024
13   14.163489    1.946579   16.281935
13   12.125152   -0.125358   20.302539
13   12.128210    1.899143   22.316958
13   14.164153   -0.120134   22.322620
13   14.157721    1.853678   20.319122
13   12.135461   -0.090907   24.330941
13   12.143253    1.958289   26.322062
13   14.170115   -0.072236   26.340890
13   14.168356    1.927322   24.316782
13   12.144501   -0.051352   28.352026
13   12.150327    1.992887   30.344564
13   14.173713   -0.038027   30.364460
13   14.173891    1.977080   28.328482
13   16.200264    0.130833    0.188586
13   16.200363    2.187739    2.269965
13   18.210644    0.145299    2.220515
13   18.209897    2.163128    0.221913
13   16.200331    0.163993    4.255226
13   16.200470    2.237134    6.351061
13   18.207955    0.173271    6.275696
13   18.204946    2.208769    4.307503
13   16.200362    0.181718    8.294815
13   16.200515    2.263291   10.388837
13   18.209304    0.163472   10.290105
13   18.200650    2.251288    8.371228
13   16.200235    0.125141   12.280315
13   16.200168    2.122027   14.315571
13   18.222366    0.039631   14.258605
13   18.204936    2.221657   12.358175
13   16.199853   -0.058584   16.260644
13   16.199580    1.840850   18.307614
13   18.237782   -0.122063   18.282153
13   18.236091    1.946358   16.282173
13   16.199727   -0.139878   20.308606
13   16.199774    1.888164   22.318911
13   18.235438   -0.120338   22.322701
13   18.241631    1.853278   20.319277
13   16.199848   -0.097268   24.332671
13   16.199936    1.955107   26.319009
13   18.229696   -0.072312   26.340890
13   18.231384    1.927205   24.316748
13   16.199945   -0.053527   28.351055
13   16.200007    1.992132   30.340907
13   18.226235   -0.038051   30.364429
13   18.226062    1.977048   28.328408
13   20.225413    0.123523    0.177821
13   20.216471    2.177018    2.252960
13   22.236924    0.127448    2.196111
13   22.234477    2.147516    0.195793
13   20.219736    0.152071    4.240031
13   20.207636    2.218408    6.325131
13   22.231849    0.145263    6.243268
13   22.223190    2.181909    4.268001
13   20.217847    0.163522    8.275621
13   20.205874    2.231836   10.353095
13   22.238540    0.126548   10.255869
13   22.216191    2.205768    8.314536
13   20.230504    0.106128   12.264396
13   20.238426    2.096777   14.292111
13   22.271371    0.023437   14.241414
13   22.234109    2.159747   12.298753
13   20.263185   -0.053068   16.254817
13   20.285854    1.868107   18.296183
13   22.305815   -0.096123   18.271389
13   22.301098    1.964042   16.263245
13   20.274454   -0.125887   20.302759
13   20.271402    1.898724   22.317046
13   22.302376   -0.101976   22.315430
13   22.316841    1.888378   20.305452
13   20.264281   -0.091148   24.331009
13   20.256606    1.958165   26.321957
13   22.288386   -0.065214   26.340553
13   22.293762    1.938475   24.318548
13   20.255392   -0.051436   28.351992
13   20.249665    1.992857   30.344429
13   22.278977   -0.035774   30.367104
13   22.279136    1.980230   28.334618
13   24.258677    0.104154    0.149627
13   24.245481    2.149041    2.209519
13   26.276209    0.099002    2.157987
13   26.272031    2.122030    0.154065
13   24.251804    0.121685    4.202019
13   24.236015    2.171742    6.262923
13   26.274314    0.103890    6.196701
13   26.262203    2.140433    4.209246
13   24.253174    0.120254    8.231089
13   24.242515    2.161571   10.277629
13   26.288204    0.079045   10.212593
13   26.262430    2.142523    8.240341
13   24.276490    0.066655   12.231003
13   24.293103    2.055352   14.250204
13   26.325743    0.007479   14.220730
13   26.292694    2.093321   12.236957
13   24.320315   -0.040710   16.241848
13   24.348342    1.922167   18.273687
13   26.359772   -0.064358   18.257824
13   26.354011    1.984380   16.241796
13   24.337056   -0.093689   20.289521
13   24.335898    1.926604   22.309615
13   26.359286   -0.074878   22.304638
13   26.372730    1.935228   20.286816
13   24.324405   -0.075045   24.326100
13   24.313564    1.967090   26.327354
13   26.344174   -0.053149   26.338849
13   26.351858    1.957830   24.317364
13   24.310360   -0.045506   28.353764
13   24.301035    1.995170   30.352787
13   26.331846   -0.031507   30.370659
13   26.333249    1.986377   28.342246
13   28.303342    0.079525    0.114425
13   28.291767    2.114827    2.158087
13   30.327918    0.069730    2.119607
13   30.322680    2.094925    0.110845
13   28.299884    0.085922    4.158441
13   28.289143    2.120212    6.197663
13   30.331288    0.066005    6.155080
13   30.319073    2.100464    4.154853
13   28.307224    0.075461    8.186157
13   28.305806    2.098453   10.213381
13   30.348779    0.042914   10.179259
13   30.327868    2.091127    8.182867
13   28.333929    0.033749   12.201507
13   28.352433    2.031787   14.219543
13   30.380280   -0.000877   14.204920
13   30.358753    2.054067   12.198637
13   28.371321   -0.028459   16.229104
13   28.392997    1.965231   18.255312
13   30.405738   -0.040314   18.246961
13   30.400786    1.999209   16.226368
13   28.387063   -0.061715   20.276574
13   28.388402    1.958474   22.299041
13   30.407671   -0.050219   22.294884
13   30.415965    1.971269   20.272560
13   28.377880   -0.055428   24.319483
13   28.368358    1.979662   26.330265
13   30.396006   -0.039893   26.335951
13   30.403132    1.978036   24.313268
13   28.363766   -0.037191   28.354713
13   28.353792    1.999019   30.361417
13   30.384068   -0.026074   30.373398
13   30.386499    1.994197   28.347416
13    0.053823    4.107270    0.100747
13    0.061460    6.133800    2.133320
13    2.087685    4.125096    2.148669
13    2.089012    6.143035    0.134980
13    0.056080    4.110691    4.143649
13    0.060132    6.134761    6.170675
13    2.089155    4.128601    6.187502
13    2.098711    6.154458    4.186686
13    0.045063    4.101776    8.172343
13    0.037416    6.118046   10.190100
13    2.069302    4.109342   10.204467
13    2.094532    6.153798    8.216779
13    0.012380    4.071371   12.191379
13   -0.011579    6.076342   14.205781
13    2.018614    4.054045   14.213803
13    2.053907    6.118194   12.218539
13   -0.028479    4.028757   16.221700
13   -0.045641    6.038155   18.243110
13    1.978323    4.000796   18.249787
13    1.984262    6.046140   16.229665
13   -0.040607    4.007628   20.266785
13   -0.033785    6.034353   22.282848
13    1.987051    3.996234   22.290981
13    1.973988    6.016289   20.269211
13   -0.025501    4.012963   24.306370
13   -0.009889    6.046681   26.313714
13    2.010082    4.013606   26.321289
13    2.005063    6.031680   24.295146
13   -0.007798    4.025532   28.340745
13    0.005674    6.058168   30.346811
13    2.025672    4.029174   30.353118
13    2.027549    6.049995   28.320963
13    4.111110    4.133887    0.148354
13    4.125373    6.167220    2.197238
13    6.143118    4.161054    2.209480
13    6.142028    6.171906    0.195667
13    4.122094    4.149678    4.203070
13    4.137744    6.184597    6.250537
13    6.155634    4.183125    6.265158
13    6.162073    6.202069    4.273199
13    4.121108    4.151443    8.234422
13    4.126983    6.178263   10.267038
13    6.148461    4.177163   10.281847
13    6.176924    6.228560    8.329205
13    4.084740    4.108607   12.231955
13    4.051708    6.097485   14.240166
13    6.082258    4.079764   14.250081
13    6.150485    6.203049   12.317510
13    4.013544    4.013835   16.237204
13    3.981493    5.997518   18.259603
13    6.012221    3.954361   18.269401
13    6.018044    6.018838   16.258530
13    3.997304    3.973737   20.279119
13    4.014569    6.006467   22.282429
13    6.036178    3.964458   22.297195
13    6.016496    5.964277   20.280069
13    4.024903    3.994572   24.306005
13    4.047417    6.036291   26.296821
13    6.065334    4.001853   26.311477
13    6.064682    6.012841   24.276007
13    4.046403    4.018731   28.330594
13    4.061826    6.055352   30.325944
13    6.079557    4.025956   30.338239
13    6.084961    6.044735   28.294970
13    8.155917    4.162847    0.201918
13    8.172745    6.205723    2.274852
13   10.179828    4.196701    2.272493
13   10.177396    6.199311    0.255699
13    8.172759    4.197534    4.279842
13    8.196353    6.251713    6.367747
13   10.196818    4.244557    6.359274
13   10.198332    6.251379    4.369631
13    8.185312    4.226709    8.334784
13    8.211676    6.290918   10.428047
13   10.205961    4.277346   10.407106
13   10.222647    6.319623    8.485754
13    8.163872    4.193921   12.320866
13    8.144389    6.193514   14.349026
13   10.153711    4.155266   14.329024
13   10.232336    6.371437   12.551427
13    8.057614    3.987232   16.265334
13    8.010645    5.901882   18.294258
13   10.058747    3.871229   18.303321
13   10.052561    5.957992   16.326469
13    8.044879    3.919542   20.297269
13    8.079318    5.972376   22.261465
13   10.098771    3.931574   22.294833
13   10.092785    5.902939   20.259351
13    8.082478    3.974636   24.298209
13    8.106899    6.026834   26.263945
13   10.122097    3.992500   26.294122
13   10.127945    5.996898   24.233329
13    8.101218    4.013036   28.314167
13    8.114990    6.053564   30.297703
13   10.130853    4.024020   30.320783
13   10.137615    6.041048   28.261031
13   12.184125    4.185911    0.245982
13   12.195541    6.237012    2.341322
13   14.196444    4.219203    2.313807
13   14.195175    6.216151    0.293806
13   12.196996    4.238424    4.349363
13   12.213975    6.309778    6.480301
13   14.204385    4.285586    6.426921
13   14.204058    6.282390    4.434387
13   12.210930    4.300242    8.443414
13   12.232815    6.404471   10.629159
13   14.211471    4.354747   10.517944
13   14.214951    6.377740    8.601583
13   12.210908    4.316578   12.463042
13   12.224097    6.443615   14.690143
13   14.197067    4.266947   14.443868
13   14.221674    6.493057   12.791565
13   12.115435    3.948695   16.307341
13   12.106756    5.783174   18.291547
13   14.145357    3.790042   18.336233
13   14.124810    5.856332   16.488720
13   12.117025    3.866738   20.307630
13   12.149261    5.948252   22.203880
13   14.167122    3.913454   22.281846
13   14.172540    5.872259   20.179290
13   12.143225    3.960698   24.281381
13   12.158835    6.020451   26.224354
13   14.175070    3.987772   26.278288
13   14.179099    5.987907   24.190451
13   12.152804    4.009645   28.296449
13   12.160832    6.052679   30.271232
13   14.177743    4.023238   30.308298
13   14.180903    6.039074   28.235478
13   16.200361    4.194842    0.263397
13   16.200485    6.249106    2.367900
13   18.204367    4.219443    2.314254
13   18.205592    6.216328    0.294213
13   16.200506    4.254640    4.378063
13   16.200689    6.332048    6.526884
13   18.196716    4.286028    6.427673
13   18.197039    6.282717    4.435088
13   16.200674    4.330578    8.492146
13   16.200893    6.445537   10.718162
13   18.189866    4.355603   10.519260
13   18.186553    6.378335    8.602853
13   16.200737    4.377661   12.545123
13   16.200782    6.550932   14.946435
13   18.203629    4.268569   14.445634
13   18.180111    6.494155   12.794300
13   16.199576    3.924997   16.334111
13   16.199849    5.753709   18.189146
13   18.253542    3.789080   18.336609
13   18.273736    5.855151   16.493474
13   16.199681    3.847824   20.304659
13   16.200050    5.939463   22.167077
13   18.232550    3.913282   22.281633
13   18.227250    5.871949   20.178005
13   16.199948    3.956083   24.271174
13   16.200112    6.018039   26.205698
13   18.224921    3.987726   26.278096
13   18.221026    5.987811   24.189926
13   16.200038    4.008567   28.288386
13   16.200121    6.052392   30.260079
13   18.222356    4.023231   30.308159
13   18.219311    6.039053   28.235190
13   20.216464    4.186250    0.246639
13   20.205233    6.237471    2.342323
13   22.220662    4.197322    2.273617
13   22.223095    6.199780    0.256747
13   20.203782    4.239036    4.350435
13   20.187077    6.310631    6.482046
13   22.203721    4.245674    6.361059
13   22.202286    6.252240    4.371384
13   20.190009    4.301382    8.445199
13   20.168503    6.406104   10.632480
13   22.194394    4.279368   10.409821
13   22.178037    6.321262    8.488821
13   20.189808    4.318782   12.465846
13   20.176699    6.448381   14.698899
13   22.245960    4.157443   14.331194
13   22.167945    6.374977   12.557244
13   20.284144    3.947919   16.308204
13   20.291667    5.781837   18.289562
13   22.340969    3.869299   18.304110
13   22.347590    5.956241   16.328529
13   20.282334    3.865978   20.307633
13   20.250525    5.947921   22.202638
13   22.300862    3.931030   22.294633
13   22.306376    5.901982   20.258123
13   20.256592    3.960514   24.281036
13   20.241253    6.020361   26.223679
13   22.277793    3.992358   26.293739
13   22.271875    5.996645   24.232319
13   20.247216    4.009601   28.296156
13   20.239333    6.052668   30.270818
13   22.269165    4.023994   30.320455
13   22.262425    6.040992   28.260368
13   24.244356    4.163397    0.202955
13   24.227553    6.206467    2.276395
13   26.256939    4.161810    2.210787
13   26.258074    6.172498    0.196940
13   24.227482    4.198486    4.281418
13   24.203863    6.253077    6.370260
13   26.244228    4.184362    6.266978
13   26.237886    6.203103    4.275146
13   24.214731    4.228344    8.337073
13   24.188119    6.293511   10.432120
13   26.251035    4.178940   10.283934
13   26.222656    6.230363    8.332073
13   24.235681    4.196210   12.323320
13   24.254411    6.197078   14.352967
13   26.317347    4.080665   14.251145
13   26.248419    6.205684   12.320692
13   24.342422    3.986553   16.266060
13   24.389382    5.899250   18.295113
13   26.388064    3.953068   18.269933
13   26.382317    6.018037   16.259390
13   24.354937    3.918336   20.297629
13   24.320221    5.971751   22.260635
13   26.363712    3.963754   22.297272
13   26.383394    5.962991   20.280190
13   24.317307    3.974275   24.297941
13   24.292954    6.026673   26.263145
13   26.334528    4.001631   26.311195
13   26.335040    6.012471   24.275385
13   24.298706    4.012944   28.313795
13   24.285012    6.053539   30.297111
13   26.320381    4.025904   30.337897
13   26.314914    6.044645   28.294335
13   28.288848    4.134465    0.149406
13   28.274473    6.167972    2.198712
13   30.312084    4.125751    2.149754
13   30.310801    6.143575    0.136091
13   28.277690    4.150583    4.204482
13   28.261799    6.185823    6.252572
13   30.310405    4.129512    6.188762
13   30.300872    6.155290    4.188148
13   28.278400    4.152728    8.236063
13   28.272109    6.180008   10.269332
13   30.330134    4.110306   10.205550
13   30.304743    6.154949    8.218424
13   28.314686    4.109758   12.233153
13   28.347797    6.098336   14.241286
13   30.381221    4.054298   14.214284
13   30.345408    6.119169   12.219679
13   28.386616    4.013434   16.237622
13   28.419041    5.996274   18.260087
13   30.421990    4.000159   18.250067
13   30.416017    6.045778   16.230042
13   28.402899    3.972842   20.279438
13   28.385328    6.005800   22.282306
13   30.413057    3.995695   22.291118
13   30.426293    6.015516   20.269427
13   28.375020    3.994166   24.305944
13   28.352391    6.036082   26.296328
13   30.389852    4.013372   26.321167
13   30.394838    6.031322   24.294946
13   28.353496    4.018600   28.330324
13   28.338065    6.055306   30.325436
13   30.374245    4.029100   30.352871
13   30.372302    6.049879   28.320563
13    0.061340    8.151557    0.115403
13    0.067014   10.175130    2.144867
13    2.099850    8.170617    2.174080
13    2.094714   10.181965    0.149412
13    0.067368    8.158220    4.162612
13    0.068491   10.179797    6.185540
13    2.108093    8.181259    6.221290
13    2.109190   10.195935    4.209610
13    0.058184    8.154898    8.191300
13    0.044367   10.169960   10.202052
13    2.090558    8.172409   10.236600
13    2.111075   10.204010    8.247304
13    0.016647    8.127464   12.200528
13   -0.019374   10.131270   14.206027
13    2.016050    8.112841   14.223226
13    2.065422   10.180464   12.239818
13   -0.041050    8.079649   16.220906
13   -0.054483   10.091397   18.236496
13    1.960551    8.045742   18.247325
13    1.963122   10.098895   16.227164
13   -0.044373    8.058900   20.259700
13   -0.020445   10.089171   22.262531
13    1.996715    8.049037   22.270040
13    1.981456   10.068553   20.247991
13   -0.013517    8.067522   24.287234
13    0.011283   10.100187   26.283620
13    2.030169    8.069186   26.287115
13    2.032639   10.086212   24.252738
13    0.008469    8.079732   28.315193
13    0.024556   10.109257   30.316436
13    2.044035    8.083021   30.318409
13    2.052741   10.102053   28.277233
13    4.121909    8.177130    0.176993
13    4.135014   10.205057    2.224403
13    6.158666    8.206881    2.257679
13    6.149424   10.206989    0.222926
13    4.141218    8.199489    4.247693
13    4.156185   10.229666    6.296308
13    6.184231    8.243864    6.344725
13    6.176818   10.240737    4.323719
13    4.152312    8.217275    8.296229
13    4.158492   10.245386   10.332204
13    6.198106    8.275045   10.399352
13    6.206069   10.286160    8.422349
13    4.116256    8.192515   12.284770
13    4.060227   10.178164   14.271225
13    6.113951    8.194274   14.324903
13    6.207631   10.322807   12.470100
13    3.986031    8.057988   16.243743
13    3.963855   10.035081   18.246380
13    5.979591    7.962061   18.270489
13    5.952748   10.054858   16.276589
13    3.996744    8.016523   20.261418
13    4.050902   10.059310   22.219840
13    6.065631    8.015700   22.232695
13    6.067524   10.001991   20.177813
13    4.049361    8.050448   24.259573
13    4.081487   10.089083   26.230852
13    6.094799    8.059074   26.240798
13    6.111404   10.063904   24.169537
13    4.069704    8.074370   28.281869
13    4.086156   10.105490   30.272415
13    6.100959    8.080632   30.280424
13    6.116231   10.094882   28.214811
13    8.166840    8.205138    0.247686
13    8.182724   10.239522    2.321972
13   10.192616    8.242380    2.344665
13   10.183400   10.230645    0.295681
13    8.193348    8.250092    4.360675
13    8.215197   10.295479    6.459795
13   10.220207    8.310671    6.492862
13   10.209288   10.285695    4.447936
13    8.223919    8.311497    8.478580
13    8.245647   10.380212   10.619982
13   10.247074    8.408292   10.668163
13   10.237760   10.374674    8.644721
13    8.236453    8.368783   12.557993
13    8.220329   10.492851   14.795734
13   10.229429    8.516463   14.868405
13   10.228670   10.517208   12.923045
13    7.988621    7.993277   16.317145
13    8.105566    9.848015   18.045524
13   10.115202    7.805792   18.118935
13    8.081717    7.948581   20.202652
13    8.143663   10.010251   22.070813
13   10.145069    7.979164   22.119359
13   10.171513    9.877827   19.869669
13    8.119563    8.031200   24.190798
13    8.145606   10.074462   26.139458
13   10.150519    8.049170   26.172776
13   10.171427   10.032723   24.033543
13    8.126626    8.069408   28.231292
13    8.138910   10.101396   30.214582
13   10.148709    8.078725   30.237446
13   10.163727   10.086510   28.139709
13   12.190894    8.227202    0.305744
13   12.201292   10.266882    2.403665
13   14.201273    8.264114    2.400569
13   14.197421   10.245001    0.341265
13   12.209304    8.291191    4.460182
13   12.221764   10.347172    6.602416
13   14.212273    8.350422    6.590964
13   14.207527   10.312488    4.526530
13   12.230522    8.388754    8.657527
13   12.227673   10.473989   10.871986
13   14.219163    8.475196   10.847336
13   14.215614   10.420731    8.775591
13   12.230971    8.522648   12.929983
13   12.129364   10.684123   15.210793
13   14.176902    8.613450   15.226916
13   14.194575   10.580449   13.088881
13   12.149332    9.521198   17.513316
13   14.182664    7.611936   17.699967
13   12.170924    7.875718   19.988560
13   12.187534    9.944494   21.879303
13   14.188126    7.947528   22.005665
13   14.189796    9.763998   19.670203
13   12.171478    8.012624   24.099982
13   12.183049   10.058073   26.047394
13   14.186754    8.041570   26.120362
13   14.194624   10.005039   23.936039
13   12.169604    8.065090   28.181292
13   12.175616   10.097428   30.163196
13   14.184780    8.077385   30.208060
13   14.190892   10.079791   28.088411
13   16.200432    8.235632    0.328488
13   16.200542   10.277218    2.435468
13   18.199724    8.264341    2.401166
13   18.203432   10.245152    0.341748
13   16.200630    8.306641    4.499610
13   16.200746   10.365352    6.655618
13   18.189143    8.350824    6.592002
13   18.193712   10.312764    4.527355
13   16.200839    8.414741    8.726353
13   16.200710   10.499132   10.944877
13   18.182580    8.475765   10.849081
13   18.185974   10.421162    8.776862
13   16.200674    8.552536   13.042532
13   16.199656   10.724526   15.226739
13   18.223522    8.613963   15.228312
13   18.206357   10.580957   13.089944
13   16.199879    9.443146   17.444031
13   18.217729    7.609579   17.696604
13   16.200275    7.832304   19.879654
13   16.200390    9.912525   21.808328
13   18.212334    7.947128   22.004367
13   18.210834    9.762817   19.668547
13   16.200257    8.003440   24.058264
13   16.200361   10.050138   26.009847
13   18.213675    8.041479   26.119775
13   18.206114   10.004710   23.935013
13   16.200219    8.063106   28.160066
13   16.200276   10.095609   30.142470
13   18.215585    8.077369   30.207739
13   18.209703   10.079712   28.087857
13   20.209813    8.227523    0.306604
13   20.199591   10.267278    2.404873
13   22.207994    8.242989    2.346201
13   22.217150   10.231047    0.296943
13   20.191703    8.291785    4.461675
13   20.179503   10.347885    6.604474
13   22.180594    8.311812    6.495562
13   22.191471   10.286457    4.450124
13   20.170883    8.389794    8.660182
13   20.174027   10.475052   10.875065
13   22.154007    8.410457   10.673328
13   22.163369   10.376085    8.648575
13   20.170968    8.524097   12.934891
13   20.270972   10.685812   15.211865
13   22.172725    8.521997   14.883792
13   22.173638   10.519548   12.929625
13   20.251172    9.517595   17.509791
13   22.282095    7.802377   18.108493
13   20.229135    7.874248   19.984419
13   20.213097    9.943328   21.876492
13   22.254648    7.978428   22.116557
13   22.228735    9.874826   19.863188
13   20.228777    8.012301   24.098449
13   20.217472   10.057789   26.045977
13   22.249566    8.048981   26.171414
13   22.228805   10.032048   24.030877
13   20.230692    8.065019   28.180504
13   20.224805   10.097362   30.162416
13   22.251462    8.078691   30.236657
13   22.236551   10.086342   28.138321
13   24.233476    8.205668    0.249057
13   24.217622   10.240181    2.323896
13   26.241379    8.207643    2.259491
13   26.250674   10.207502    0.224473
13   24.206973    8.251078    4.362978
13   24.185177   10.296760    6.463173
13   26.215559    8.245270    6.347657
13   26.223133   10.241701    4.326282
13   24.176287    8.313414    8.482650
13   24.154851   10.382860   10.626474
13   26.200979    8.277743   10.404050
13   26.193495   10.288081    8.426787
13   24.163060    8.373115   12.566091
13   24.181582   10.501097   14.815364
13   26.284171    8.197915   14.329259
13   26.190653   10.327202   12.478319
13   24.412897    7.990893   16.320093
13   24.290679    9.841703   18.030604
13   26.420690    7.959367   18.270973
13   26.449496   10.053110   16.278701
13   24.316982    7.947185   20.199691
13   24.255799   10.009018   22.066665
13   26.333726    8.014974   22.231245
13   26.330840   10.000178   20.174184
13   24.280128    8.030813   24.188992
13   24.254351   10.074131   26.137413
13   26.304937    8.058872   26.239580
13   26.288052   10.063368   24.167149
13   24.273358    8.069313   28.230192
13   24.261191   10.101311   30.213402
13   26.298974    8.080590   30.279564
13   26.283616   10.094725   28.213335
13   28.278006    8.177689    0.178373
13   28.264777   10.205733    2.226258
13   30.299814    8.171275    2.175550
13   30.305044   10.182431    0.150747
13   28.258447    8.200456    4.249761
13   28.243202   10.230900    6.299191
13   30.291214    8.182297    6.223230
13   30.290259   10.196718    4.211517
13   28.246834    8.218932    8.299170
13   28.240037   10.247648   10.336411
13   30.308362    8.173793   10.238618
13   30.287858   10.205274    8.249785
13   28.282272    8.194783   12.287770
13   28.338255   10.180471   14.274134
13   30.383578    8.113415   14.224114
13   30.333282   10.181934   12.241914
13   28.414595    8.057302   16.244477
13   28.436678   10.033042   18.246510
13   30.440058    8.044802   18.247647
13   30.437565   10.098459   16.227628
13   28.403183    8.015349   20.261258
13   28.348315   10.058538   22.218164
13   30.403159    8.048468   22.269750
13   30.418510   10.067651   20.247687
13   28.350253    8.050071   24.258659
13   28.318087   10.088828   26.229373
13   30.369562    8.068988   26.286467
13   30.366882   10.085842   24.251721
13   28.330078    8.074266   28.281005
13   28.313666   10.105411   30.271353
13   30.355785    8.082968   30.317772
13   30.346933   10.101922   28.276246
13    0.061393   12.189352    0.118027