# Generated by atomlib on 2024-04-02 13:01:30-04:00

        4 atoms
        2 atom types
        2.0000000      5.1300000 xlo xhi
        0.0000000      2.7106595 ylo yhi
       -5.0000000      0.0200000 zlo zhi
       -1.5650000      0.0000000      0.0000000 xy xz yz

Atom Type Labels

       10   Al
       20    N

Masses

       10      5.0000000  # Al
       20     10.0000000  # N

Atoms  # charge

        1   10   0.0   3.5650000      0.9031460     -2.4951000
        2   10   0.0   2.0000000      1.8062910      0.0133770
        3   20   0.0   3.5650000      0.9031460     -0.5815030
        4   20   0.0   2.0000000      1.8062910     -3.0899800
