CRYSTAL
PRIMVEC
  46.8954811   0.0000000   0.0000000
  -0.0000000  47.3715896   0.0000000
  -0.0000000  -0.0000000 201.1294528
CONVVEC
  46.8954811   0.0000000   0.0000000
  -0.0000000  47.3715896   0.0000000
  -0.0000000  -0.0000000 201.1294528

PRIMCOORD
32760 1
 8    2.233118    8.684791    0.000000
 8    0.000000    2.368579   -0.000000
 8    1.116559    5.526685    1.933937
 8    0.000000    7.105738    0.000000
 8    4.466236    5.526685    0.000000
 8    5.582795    8.684791    1.933937
 8    3.349677    2.368579    1.933937
 8    2.233118    3.947632    0.000000
58    2.233118    6.316212    0.000000
 8    3.349677    7.105738    1.933937
58    0.000000   -0.000000   -0.000000
 8    1.116559    0.789526    1.933937
58    1.116559    3.158106    1.933937
 8    4.466236    0.789526   -0.000000
58    4.466236    3.158106    0.000000
 8    5.582795    3.947632    1.933937
58    5.582795    6.316212    1.933937
58    3.349677   -0.000000    1.933937
 8    8.932473    8.684791    0.000000
 8    6.699354    2.368579   -0.000000
 8    7.815914    5.526685    1.933937
 8    6.699354    7.105738    0.000000
 8   11.165591    5.526685    0.000000
 8   12.282150    8.684791    1.933937
 8   10.049032    2.368579    1.933937
 8    8.932473    3.947632    0.000000
58    8.932473    6.316212    0.000000
 8   10.049032    7.105738    1.933937
58    6.699354    0.000000   -0.000000
 8    7.815914    0.789526    1.933937
58    7.815914    3.158106    1.933937
 8   11.165591    0.789526    0.000000
58   11.165591    3.158106    0.000000
 8   12.282150    3.947632    1.933937
58   12.282150    6.316212    1.933937
58   10.049032    0.000000    1.933937
 8   15.631827    8.684791    0.000000
 8   13.398709    2.368579   -0.000000
 8   14.515268    5.526685    1.933937
 8   13.398709    7.105738    0.000000
 8   17.864945    5.526685    0.000000
 8   18.981504    8.684791    1.933937
 8   16.748386    2.368579    1.933937
 8   15.631827    3.947632    0.000000
58   15.631827    6.316212    0.000000
 8   16.748386    7.105738    1.933937
58   13.398709    0.000000   -0.000000
 8   14.515268    0.789526    1.933937
58   14.515268    3.158106    1.933937
 8   17.864945    0.789526    0.000000
58   17.864945    3.158106    0.000000
 8   18.981504    3.947632    1.933937
58   18.981504    6.316212    1.933937
58   16.748386    0.000000    1.933937
 8   22.331181    8.684791    0.000000
 8   20.098063    2.368579   -0.000000
 8   21.214622    5.526685    1.933937
 8   20.098063    7.105738    0.000000
 8   24.564300    5.526685    0.000000
 8   25.680859    8.684791    1.933937
 8   23.447741    2.368579    1.933937
 8   22.331181    3.947632    0.000000
58   22.331181    6.316212    0.000000
 8   23.447741    7.105738    1.933937
58   20.098063    0.000000   -0.000000
 8   21.214622    0.789526    1.933937
58   21.214622    3.158106    1.933937
 8   24.564300    0.789526    0.000000
58   24.564300    3.158106    0.000000
 8   25.680859    3.947632    1.933937
58   25.680859    6.316212    1.933937
58   23.447741    0.000000    1.933937
 8   29.030536    8.684791    0.000000
 8   26.797418    2.368579   -0.000000
 8   27.913977    5.526685    1.933937
 8   26.797418    7.105738    0.000000
 8   31.263654    5.526685    0.000000
 8   32.380213    8.684791    1.933937
 8   30.147095    2.368579    1.933937
 8   29.030536    3.947632    0.000000
58   29.030536    6.316212    0.000000
 8   30.147095    7.105738    1.933937
58   26.797418    0.000000   -0.000000
 8   27.913977    0.789526    1.933937
58   27.913977    3.158106    1.933937
 8   31.263654    0.789526    0.000000
58   31.263654    3.158106    0.000000
 8   32.380213    3.947632    1.933937
58   32.380213    6.316212    1.933937
58   30.147095    0.000000    1.933937
 8   35.729890    8.684791    0.000000
 8   33.496772    2.368579   -0.000000
 8   34.613331    5.526685    1.933937
 8   33.496772    7.105738    0.000000
 8   37.963009    5.526685    0.000000
 8   39.079568    8.684791    1.933937
 8   36.846449    2.368579    1.933937
 8   35.729890    3.947632    0.000000
58   35.729890    6.316212    0.000000
 8   36.846449    7.105738    1.933937
58   33.496772    0.000000   -0.000000
 8   34.613331    0.789526    1.933937
58   34.613331    3.158106    1.933937
 8   37.963009    0.789526    0.000000
58   37.963009    3.158106    0.000000
 8   39.079568    3.947632    1.933937
58   39.079568    6.316212    1.933937
58   36.846449    0.000000    1.933937
 8   42.429245    8.684791    0.000000
 8   40.196127    2.368579   -0.000000
 8   41.312686    5.526685    1.933937
 8   40.196127    7.105738    0.000000
 8   44.662363    5.526685    0.000000
 8   45.778922    8.684791    1.933937
 8   43.545804    2.368579    1.933937
 8   42.429245    3.947632    0.000000
58   42.429245    6.316212    0.000000
 8   43.545804    7.105738    1.933937
58   40.196127    0.000000   -0.000000
 8   41.312686    0.789526    1.933937
58   41.312686    3.158106    1.933937
 8   44.662363    0.789526    0.000000
58   44.662363    3.158106    0.000000
 8   45.778922    3.947632    1.933937
58   45.778922    6.316212    1.933937
58   43.545804    0.000000    1.933937
 8    2.233118   18.159109    0.000000
 8   -0.000000   11.842897   -0.000000
 8    1.116559   15.001003    1.933937
 8   -0.000000   16.580056    0.000000
 8    4.466236   15.001003    0.000000
 8    5.582795   18.159109    1.933937
 8    3.349677   11.842897    1.933937
 8    2.233118   13.421950    0.000000
58    2.233118   15.790530    0.000000
 8    3.349677   16.580056    1.933937
58   -0.000000    9.474318   -0.000000
 8    1.116559   10.263844    1.933937
58    1.116559   12.632424    1.933937
 8    4.466236   10.263844    0.000000
58    4.466236   12.632424    0.000000
 8    5.582795   13.421950    1.933937
58    5.582795   15.790530    1.933937
58    3.349677    9.474318    1.933937
 8    8.932473   18.159109    0.000000
 8    6.699354   11.842897   -0.000000
 8    7.815914   15.001003    1.933937
 8    6.699354   16.580056    0.000000
 8   11.165591   15.001003    0.000000
 8   12.282150   18.159109    1.933937
 8   10.049032   11.842897    1.933937
 8    8.932473   13.421950    0.000000
58    8.932473   15.790530    0.000000
 8   10.049032   16.580056    1.933937
64    6.699354    9.474318   -0.000000
 8    7.815914   10.263844    1.933937
58    7.815914   12.632424    1.933937
 8   11.165591   10.263844    0.000000
58   11.165591   12.632424    0.000000
 8   12.282150   13.421950    1.933937
58   12.282150   15.790530    1.933937
58   10.049032    9.474318    1.933937
 8   15.631827   18.159109    0.000000
 8   13.398709   11.842897   -0.000000
 8   14.515268   15.001003    1.933937
 8   13.398709   16.580056    0.000000
 8   17.864945   15.001003    0.000000
 8   18.981504   18.159109    1.933937
 8   16.748386   11.842897    1.933937
 8   15.631827   13.421950    0.000000
58   15.631827   15.790530    0.000000
 8   16.748386   16.580056    1.933937
58   13.398709    9.474318   -0.000000
 8   14.515268   10.263844    1.933937
58   14.515268   12.632424    1.933937
 8   17.864945   10.263844    0.000000
58   17.864945   12.632424    0.000000
 8   18.981504   13.421950    1.933937
58   18.981504   15.790530    1.933937
58   16.748386    9.474318    1.933937
 8   22.331181   18.159109    0.000000
 8   20.098063   11.842897   -0.000000
 8   21.214622   15.001003    1.933937
 8   20.098063   16.580056    0.000000
 8   24.564300   15.001003    0.000000
 8   25.680859   18.159109    1.933937
 8   23.447741   11.842897    1.933937
 8   22.331181   13.421950    0.000000
58   22.331181   15.790530    0.000000
 8   23.447741   16.580056    1.933937
58   20.098063    9.474318   -0.000000
 8   21.214622   10.263844    1.933937
58   21.214622   12.632424    1.933937
 8   24.564300   10.263844    0.000000
58   24.564300   12.632424    0.000000
 8   25.680859   13.421950    1.933937
58   25.680859   15.790530    1.933937
58   23.447741    9.474318    1.933937
 8   29.030536   18.159109    0.000000
 8   26.797418   11.842897   -0.000000
 8   27.913977   15.001003    1.933937
 8   26.797418   16.580056    0.000000
 8   31.263654   15.001003    0.000000
 8   32.380213   18.159109    1.933937
 8   30.147095   11.842897    1.933937
 8   29.030536   13.421950    0.000000
58   29.030536   15.790530    0.000000
 8   30.147095   16.580056    1.933937
58   26.797418    9.474318   -0.000000
 8   27.913977   10.263844    1.933937
58   27.913977   12.632424    1.933937
 8   31.263654   10.263844    0.000000
58   31.263654   12.632424    0.000000
 8   32.380213   13.421950    1.933937
58   32.380213   15.790530    1.933937
58   30.147095    9.474318    1.933937
 8   35.729890   18.159109    0.000000
 8   33.496772   11.842897   -0.000000
 8   34.613331   15.001003    1.933937
 8   33.496772   16.580056    0.000000
 8   37.963009   15.001003    0.000000
 8   39.079568   18.159109    1.933937
 8   36.846449   11.842897    1.933937
 8   35.729890   13.421950    0.000000
58   35.729890   15.790530    0.000000
 8   36.846449   16.580056    1.933937
58   33.496772    9.474318   -0.000000
 8   34.613331   10.263844    1.933937
58   34.613331   12.632424    1.933937
 8   37.963009   10.263844    0.000000
58   37.963009   12.632424    0.000000
 8   39.079568   13.421950    1.933937
58   39.079568   15.790530    1.933937
58   36.846449    9.474318    1.933937
 8   42.429245   18.159109    0.000000
 8   40.196127   11.842897   -0.000000
 8   41.312686   15.001003    1.933937
 8   40.196127   16.580056    0.000000
 8   44.662363   15.001003    0.000000
 8   45.778922   18.159109    1.933937
 8   43.545804   11.842897    1.933937
 8   42.429245   13.421950    0.000000
58   42.429245   15.790530    0.000000
 8   43.545804   16.580056    1.933937
58   40.196127    9.474318   -0.000000
 8   41.312686   10.263844    1.933937
58   41.312686   12.632424    1.933937
 8   44.662363   10.263844    0.000000
58   44.662363   12.632424    0.000000
 8   45.778922   13.421950    1.933937
58   45.778922   15.790530    1.933937
58   43.545804    9.474318    1.933937
 8    2.233118   27.633427    0.000000
 8   -0.000000   21.317215   -0.000000
 8    1.116559   24.475321    1.933937
 8   -0.000000   26.054374    0.000000
 8    4.466236   24.475321    0.000000
 8    5.582795   27.633427    1.933937
 8    3.349677   21.317215    1.933937
 8    2.233118   22.896268    0.000000
58    2.233118   25.264848    0.000000
 8    3.349677   26.054374    1.933937
58   -0.000000   18.948636   -0.000000
 8    1.116559   19.738162    1.933937
58    1.116559   22.106742    1.933937
 8    4.466236   19.738162    0.000000
58    4.466236   22.106742    0.000000
 8    5.582795   22.896268    1.933937
58    5.582795   25.264848    1.933937
58    3.349677   18.948636    1.933937
 8    8.932473   27.633427    0.000000
 8    6.699354   21.317215   -0.000000
 8    7.815914   24.475321    1.933937
 8    6.699354   26.054374    0.000000
 8   11.165591   24.475321    0.000000
 8   12.282150   27.633427    1.933937
 8   10.049032   21.317215    1.933937
 8    8.932473   22.896268    0.000000
58    8.932473   25.264848    0.000000
 8   10.049032   26.054374    1.933937
58    6.699354   18.948636   -0.000000
 8    7.815914   19.738162    1.933937
58    7.815914   22.106742    1.933937
 8   11.165591   19.738162    0.000000
58   11.165591   22.106742    0.000000
 8   12.282150   22.896268    1.933937
58   12.282150   25.264848    1.933937
58   10.049032   18.948636    1.933937
 8   15.631827   27.633427    0.000000
 8   13.398709   21.317215   -0.000000
 8   14.515268   24.475321    1.933937
 8   13.398709   26.054374    0.000000
 8   17.864945   24.475321    0.000000
 8   18.981504   27.633427    1.933937
 8   16.748386   21.317215    1.933937
 8   15.631827   22.896268    0.000000
58   15.631827   25.264848    0.000000
 8   16.748386   26.054374    1.933937
58   13.398709   18.948636   -0.000000
 8   14.515268   19.738162    1.933937
58   14.515268   22.106742    1.933937
 8   17.864945   19.738162    0.000000
58   17.864945   22.106742    0.000000
 8   18.981504   22.896268    1.933937
58   18.981504   25.264848    1.933937
58   16.748386   18.948636    1.933937
 8   22.331181   27.633427    0.000000
 8   20.098063   21.317215   -0.000000
 8   21.214622   24.475321    1.933937
 8   20.098063   26.054374    0.000000
 8   24.564300   24.475321    0.000000
 8   25.680859   27.633427    1.933937
 8   23.447741   21.317215    1.933937
 8   22.331181   22.896268    0.000000
58   22.331181   25.264848    0.000000
 8   23.447741   26.054374    1.933937
58   20.098063   18.948636   -0.000000
 8   21.214622   19.738162    1.933937
58   21.214622   22.106742    1.933937
 8   24.564300   19.738162    0.000000
58   24.564300   22.106742    0.000000
 8   25.680859   22.896268    1.933937
58   25.680859   25.264848    1.933937
58   23.447741   18.948636    1.933937
 8   29.030536   27.633427    0.000000
 8   26.797418   21.317215   -0.000000
 8   27.913977   24.475321    1.933937
 8   26.797418   26.054374    0.000000
 8   31.263654   24.475321    0.000000
 8   32.380213   27.633427    1.933937
 8   30.147095   21.317215    1.933937
 8   29.030536   22.896268    0.000000
58   29.030536   25.264848    0.000000
 8   30.147095   26.054374    1.933937
58   26.797418   18.948636   -0.000000
 8   27.913977   19.738162    1.933937
58   27.913977   22.106742    1.933937
 8   31.263654   19.738162    0.000000
58   31.263654   22.106742    0.000000
 8   32.380213   22.896268    1.933937
58   32.380213   25.264848    1.933937
58   30.147095   18.948636    1.933937
 8   35.729890   27.633427    0.000000
 8   33.496772   21.317215   -0.000000
 8   34.613331   24.475321    1.933937
 8   33.496772   26.054374    0.000000
 8   37.963009   24.475321    0.000000
 8   39.079568   27.633427    1.933937
 8   36.846449   21.317215    1.933937
 8   35.729890   22.896268    0.000000
58   35.729890   25.264848    0.000000
 8   36.846449   26.054374    1.933937
58   33.496772   18.948636   -0.000000
 8   34.613331   19.738162    1.933937
58   34.613331   22.106742    1.933937
 8   37.963009   19.738162    0.000000
58   37.963009   22.106742    0.000000
 8   39.079568   22.896268    1.933937
58   39.079568   25.264848    1.933937
58   36.846449   18.948636    1.933937
 8   42.429245   27.633427    0.000000
 8   40.196127   21.317215   -0.000000
 8   41.312686   24.475321    1.933937
 8   40.196127   26.054374    0.000000
 8   44.662363   24.475321    0.000000
 8   45.778922   27.633427    1.933937
 8   43.545804   21.317215    1.933937
 8   42.429245   22.896268    0.000000
58   42.429245   25.264848    0.000000
 8   43.545804   26.054374    1.933937
58   40.196127   18.948636   -0.000000
 8   41.312686   19.738162    1.933937
58   41.312686   22.106742    1.933937
 8   44.662363   19.738162    0.000000
58   44.662363   22.106742    0.000000
 8   45.778922   22.896268    1.933937
58   45.778922   25.264848    1.933937
58   43.545804   18.948636    1.933937
 8    2.233118   37.107745    0.000000
 8   -0.000000   30.791533   -0.000000
 8    1.116559   33.949639    1.933937
 8   -0.000000   35.528692    0.000000
 8    4.466236   33.949639    0.000000
 8    5.582795   37.107745    1.933937
 8    3.349677   30.791533    1.933937
 8    2.233118   32.370586    0.000000
58    2.233118   34.739166    0.000000
 8    3.349677   35.528692    1.933937
58   -0.000000   28.422954   -0.000000
 8    1.116559   29.212480    1.933937
58    1.116559   31.581060    1.933937
 8    4.466236   29.212480    0.000000
58    4.466236   31.581060    0.000000
 8    5.582795   32.370586    1.933937
58    5.582795   34.739166    1.933937
58    3.349677   28.422954    1.933937
 8    8.932473   37.107745    0.000000
 8    6.699354   30.791533   -0.000000
 8    7.815914   33.949639    1.933937
 8    6.699354   35.528692    0.000000
 8   11.165591   33.949639    0.000000
 8   12.282150   37.107745    1.933937
 8   10.049032   30.791533    1.933937
 8    8.932473   32.370586    0.000000
58    8.932473   34.739166    0.000000
 8   10.049032   35.528692    1.933937
58    6.699354   28.422954   -0.000000
 8    7.815914   29.212480    1.933937
58    7.815914   31.581060    1.933937
 8   11.165591   29.212480    0.000000
58   11.165591   31.581060    0.000000
 8   12.282150   32.370586    1.933937
58   12.282150   34.739166    1.933937
58   10.049032   28.422954    1.933937
 8   15.631827   37.107745    0.000000
 8   13.398709   30.791533   -0.000000
 8   14.515268   33.949639    1.933937
 8   13.398709   35.528692    0.000000
 8   17.864945   33.949639    0.000000
 8   18.981504   37.107745    1.933937
 8   16.748386   30.791533    1.933937
 8   15.631827   32.370586    0.000000
58   15.631827   34.739166    0.000000
 8   16.748386   35.528692    1.933937
58   13.398709   28.422954   -0.000000
 8   14.515268   29.212480    1.933937
58   14.515268   31.581060    1.933937
 8   17.864945   29.212480    0.000000
58   17.864945   31.581060    0.000000
 8   18.981504   32.370586    1.933937
58   18.981504   34.739166    1.933937
58   16.748386   28.422954    1.933937
 8   22.331181   37.107745    0.000000
 8   20.098063   30.791533   -0.000000
 8   21.214622   33.949639    1.933937
 8   20.098063   35.528692    0.000000
 8   24.564300   33.949639    0.000000
 8   25.680859   37.107745    1.933937
 8   23.447741   30.791533    1.933937
 8   22.331181   32.370586    0.000000
58   22.331181   34.739166    0.000000
 8   23.447741   35.528692    1.933937
58   20.098063   28.422954   -0.000000
 8   21.214622   29.212480    1.933937
58   21.214622   31.581060    1.933937
 8   24.564300   29.212480    0.000000
58   24.564300   31.581060    0.000000
 8   25.680859   32.370586    1.933937
58   25.680859   34.739166    1.933937
58   23.447741   28.422954    1.933937
 8   29.030536   37.107745    0.000000
 8   26.797418   30.791533   -0.000000
 8   27.913977   33.949639    1.933937
 8   26.797418   35.528692    0.000000
 8   31.263654   33.949639    0.000000
 8   32.380213   37.107745    1.933937
 8   30.147095   30.791533    1.933937
 8   29.030536   32.370586    0.000000
58   29.030536   34.739166    0.000000
 8   30.147095   35.528692    1.933937
58   26.797418   28.422954   -0.000000
 8   27.913977   29.212480    1.933937
58   27.913977   31.581060    1.933937
 8   31.263654   29.212480    0.000000
58   31.263654   31.581060    0.000000
 8   32.380213   32.370586    1.933937
58   32.380213   34.739166    1.933937
58   30.147095   28.422954    1.933937
 8   35.729890   37.107745    0.000000
 8   33.496772   30.791533   -0.000000
 8   34.613331   33.949639    1.933937
 8   33.496772   35.528692    0.000000
 8   37.963009   33.949639    0.000000
 8   39.079568   37.107745    1.933937
 8   36.846449   30.791533    1.933937
 8   35.729890   32.370586    0.000000
58   35.729890   34.739166    0.000000
 8   36.846449   35.528692    1.933937
58   33.496772   28.422954   -0.000000
 8   34.613331   29.212480    1.933937
58   34.613331   31.581060    1.933937
 8   37.963009   29.212480    0.000000
58   37.963009   31.581060    0.000000
 8   39.079568   32.370586    1.933937
58   39.079568   34.739166    1.933937
58   36.846449   28.422954    1.933937
 8   42.429245   37.107745    0.000000
 8   40.196127   30.791533   -0.000000
 8   41.312686   33.949639    1.933937
 8   40.196127   35.528692    0.000000
 8   44.662363   33.949639    0.000000
 8   45.778922   37.107745    1.933937
 8   43.545804   30.791533    1.933937
 8   42.429245   32.370586    0.000000
58   42.429245   34.739166    0.000000
 8   43.545804   35.528692    1.933937
58   40.196127   28.422954   -0.000000
 8   41.312686   29.212480    1.933937
58   41.312686   31.581060    1.933937
 8   44.662363   29.212480    0.000000
58   44.662363   31.581060    0.000000
 8   45.778922   32.370586    1.933937
58   45.778922   34.739166    1.933937
58   43.545804   28.422954    1.933937
 8    2.233118   46.582063    0.000000
 8   -0.000000   40.265851   -0.000000
 8    1.116559   43.423957    1.933937
 8   -0.000000   45.003010    0.000000
 8    4.466236   43.423957    0.000000
 8    5.582795   46.582063    1.933937
 8    3.349677   40.265851    1.933937
 8    2.233118   41.844904    0.000000
58    2.233118   44.213484    0.000000
 8    3.349677   45.003010    1.933937
58   -0.000000   37.897272   -0.000000
 8    1.116559   38.686798    1.933937
58    1.116559   41.055378    1.933937
 8    4.466236   38.686798    0.000000
58    4.466236   41.055378    0.000000
 8    5.582795   41.844904    1.933937
58    5.582795   44.213484    1.933937
58    3.349677   37.897272    1.933937
 8    8.932473   46.582063    0.000000
 8    6.699354   40.265851   -0.000000
 8    7.815914   43.423957    1.933937
 8    6.699354   45.003010    0.000000
 8   11.165591   43.423957    0.000000
 8   12.282150   46.582063    1.933937
 8   10.049032   40.265851    1.933937
 8    8.932473   41.844904    0.000000
58    8.932473   44.213484    0.000000
 8   10.049032   45.003010    1.933937
58    6.699354   37.897272   -0.000000
 8    7.815914   38.686798    1.933937
58    7.815914   41.055378    1.933937
 8   11.165591   38.686798    0.000000
58   11.165591   41.055378    0.000000
 8   12.282150   41.844904    1.933937
58   12.282150   44.213484    1.933937
58   10.049032   37.897272    1.933937
 8   15.631827   46.582063    0.000000
 8   13.398709   40.265851   -0.000000
 8   14.515268   43.423957    1.933937
 8   13.398709   45.003010    0.000000
 8   17.864945   43.423957    0.000000
 8   18.981504   46.582063    1.933937
 8   16.748386   40.265851    1.933937
 8   15.631827   41.844904    0.000000
58   15.631827   44.213484    0.000000
 8   16.748386   45.003010    1.933937
58   13.398709   37.897272   -0.000000
 8   14.515268   38.686798    1.933937
58   14.515268   41.055378    1.933937
 8   17.864945   38.686798    0.000000
58   17.864945   41.055378    0.000000
 8   18.981504   41.844904    1.933937
58   18.981504   44.213484    1.933937
58   16.748386   37.897272    1.933937
 8   22.331181   46.582063    0.000000
 8   20.098063   40.265851   -0.000000
 8   21.214622   43.423957    1.933937
 8   20.098063   45.003010    0.000000
 8   24.564300   43.423957    0.000000
 8   25.680859   46.582063    1.933937
 8   23.447741   40.265851    1.933937
 8   22.331181   41.844904    0.000000
58   22.331181   44.213484    0.000000
 8   23.447741   45.003010    1.933937
58   20.098063   37.897272   -0.000000
 8   21.214622   38.686798    1.933937
58   21.214622   41.055378    1.933937
 8   24.564300   38.686798    0.000000
58   24.564300   41.055378    0.000000
 8   25.680859   41.844904    1.933937
58   25.680859   44.213484    1.933937
58   23.447741   37.897272    1.933937
 8   29.030536   46.582063    0.000000
 8   26.797418   40.265851   -0.000000
 8   27.913977   43.423957    1.933937
 8   26.797418   45.003010    0.000000
 8   31.263654   43.423957    0.000000
 8   32.380213   46.582063    1.933937
 8   30.147095   40.265851    1.933937
 8   29.030536   41.844904    0.000000
58   29.030536   44.213484    0.000000
 8   30.147095   45.003010    1.933937
58   26.797418   37.897272   -0.000000
 8   27.913977   38.686798    1.933937
58   27.913977   41.055378    1.933937
 8   31.263654   38.686798    0.000000
58   31.263654   41.055378    0.000000
 8   32.380213   41.844904    1.933937
58   32.380213   44.213484    1.933937
58   30.147095   37.897272    1.933937
 8   35.729890   46.582063    0.000000
 8   33.496772   40.265851   -0.000000
 8   34.613331   43.423957    1.933937
 8   33.496772   45.003010    0.000000
 8   37.963009   43.423957    0.000000
 8   39.079568   46.582063    1.933937
 8   36.846449   40.265851    1.933937
 8   35.729890   41.844904    0.000000
58   35.729890   44.213484    0.000000
 8   36.846449   45.003010    1.933937
58   33.496772   37.897272   -0.000000
 8   34.613331   38.686798    1.933937
58   34.613331   41.055378    1.933937
 8   37.963009   38.686798    0.000000
58   37.963009   41.055378    0.000000
 8   39.079568   41.844904    1.933937
58   39.079568   44.213484    1.933937
58   36.846449   37.897272    1.933937
 8   42.429245   46.582063    0.000000
 8   40.196127   40.265851   -0.000000
 8   41.312686   43.423957    1.933937
 8   40.196127   45.003010    0.000000
 8   44.662363   43.423957    0.000000
 8   45.778922   46.582063    1.933937
 8   43.545804   40.265851    1.933937
 8   42.429245   41.844904    0.000000
58   42.429245   44.213484    0.000000
 8   43.545804   45.003010    1.933937
58   40.196127   37.897272   -0.000000
 8   41.312686   38.686798    1.933937
58   41.312686   41.055378    1.933937
 8   44.662363   38.686798    0.000000
58   44.662363   41.055378    0.000000
 8   45.778922   41.844904    1.933937
58   45.778922   44.213484    1.933937
58   43.545804   37.897272    1.933937
 8    2.233118    8.684791    3.867874
 8    0.000000    2.368579    3.867874
 8    1.116559    5.526685    5.801811
 8    0.000000    7.105738    3.867874
 8    4.466236    5.526685    3.867874
 8    5.582795    8.684791    5.801811
 8    3.349677    2.368579    5.801811
 8    2.233118    3.947632    3.867874
58    2.233118    6.316212    3.867874
 8    3.349677    7.105738    5.801811
58    0.000000   -0.000000    3.867874
 8    1.116559    0.789526    5.801811
58    1.116559    3.158106    5.801811
 8    4.466236    0.789526    3.867874
58    4.466236    3.158106    3.867874
 8    5.582795    3.947632    5.801811
58    5.582795    6.316212    5.801811
58    3.349677   -0.000000    5.801811
 8    8.932473    8.684791    3.867874
 8    6.699354    2.368579    3.867874
 8    7.815914    5.526685    5.801811
 8    6.699354    7.105738    3.867874
 8   11.165591    5.526685    3.867874
 8   12.282150    8.684791    5.801811
 8   10.049032    2.368579    5.801811
 8    8.932473    3.947632    3.867874
58    8.932473    6.316212    3.867874
 8   10.049032    7.105738    5.801811
58    6.699354    0.000000    3.867874
 8    7.815914    0.789526    5.801811
58    7.815914    3.158106    5.801811
 8   11.165591    0.789526    3.867874
58   11.165591    3.158106    3.867874
 8   12.282150    3.947632    5.801811
58   12.282150    6.316212    5.801811
58   10.049032    0.000000    5.801811
 8   15.631827    8.684791    3.867874
 8   13.398709    2.368579    3.867874
 8   14.515268    5.526685    5.801811
 8   13.398709    7.105738    3.867874
 8   17.864945    5.526685    3.867874
 8   18.981504    8.684791    5.801811
 8   16.748386    2.368579    5.801811
 8   15.631827    3.947632    3.867874
58   15.631827    6.316212    3.867874
 8   16.748386    7.105738    5.801811
58   13.398709    0.000000    3.867874
 8   14.515268    0.789526    5.801811
58   14.515268    3.158106    5.801811
 8   17.864945    0.789526    3.867874
58   17.864945    3.158106    3.867874
 8   18.981504    3.947632    5.801811
58   18.981504    6.316212    5.801811
58   16.748386    0.000000    5.801811
 8   22.331181    8.684791    3.867874
 8   20.098063    2.368579    3.867874
 8   21.214622    5.526685    5.801811
 8   20.098063    7.105738    3.867874
 8   24.564300    5.526685    3.867874
 8   25.680859    8.684791    5.801811
 8   23.447741    2.368579    5.801811
 8   22.331181    3.947632    3.867874
58   22.331181    6.316212    3.867874
 8   23.447741    7.105738    5.801811
58   20.098063    0.000000    3.867874
 8   21.214622    0.789526    5.801811
58   21.214622    3.158106    5.801811
 8   24.564300    0.789526    3.867874
58   24.564300    3.158106    3.867874
 8   25.680859    3.947632    5.801811
58   25.680859    6.316212    5.801811
58   23.447741    0.000000    5.801811
 8   29.030536    8.684791    3.867874
 8   26.797418    2.368579    3.867874
 8   27.913977    5.526685    5.801811
 8   26.797418    7.105738    3.867874
 8   31.263654    5.526685    3.867874
 8   32.380213    8.684791    5.801811
 8   30.147095    2.368579    5.801811
 8   29.030536    3.947632    3.867874
58   29.030536    6.316212    3.867874
 8   30.147095    7.105738    5.801811
58   26.797418    0.000000    3.867874
 8   27.913977    0.789526    5.801811
58   27.913977    3.158106    5.801811
 8   31.263654    0.789526    3.867874
58   31.263654    3.158106    3.867874
 8   32.380213    3.947632    5.801811
58   32.380213    6.316212    5.801811
58   30.147095    0.000000    5.801811
 8   35.729890    8.684791    3.867874
 8   33.496772    2.368579    3.867874
 8   34.613331    5.526685    5.801811
 8   33.496772    7.105738    3.867874
 8   37.963009    5.526685    3.867874
 8   39.079568    8.684791    5.801811
 8   36.846449    2.368579    5.801811
 8   35.729890    3.947632    3.867874
58   35.729890    6.316212    3.867874
 8   36.846449    7.105738    5.801811
58   33.496772    0.000000    3.867874
 8   34.613331    0.789526    5.801811
58   34.613331    3.158106    5.801811
 8   37.963009    0.789526    3.867874
58   37.963009    3.158106    3.867874
 8   39.079568    3.947632    5.801811
58   39.079568    6.316212    5.801811
58   36.846449    0.000000    5.801811
 8   42.429245    8.684791    3.867874
 8   40.196127    2.368579    3.867874
 8   41.312686    5.526685    5.801811
 8   40.196127    7.105738    3.867874
 8   44.662363    5.526685    3.867874
 8   45.778922    8.684791    5.801811
 8   43.545804    2.368579    5.801811
 8   42.429245    3.947632    3.867874
58   42.429245    6.316212    3.867874
 8   43.545804    7.105738    5.801811
58   40.196127    0.000000    3.867874
 8   41.312686    0.789526    5.801811
58   41.312686    3.158106    5.801811
 8   44.662363    0.789526    3.867874
58   44.662363    3.158106    3.867874
 8   45.778922    3.947632    5.801811
58   45.778922    6.316212    5.801811
58   43.545804    0.000000    5.801811
 8    2.233118   18.159109    3.867874
 8   -0.000000   11.842897    3.867874
 8    1.116559   15.001003    5.801811
 8   -0.000000   16.580056    3.867874
 8    4.466236   15.001003    3.867874
 8    5.582795   18.159109    5.801811