CRYSTAL
PRIMVEC
  25.0400000   0.0000000   0.0000000
   0.0000000  27.1065951   0.0000000
   0.0000000   0.0000000  25.1000000
CONVVEC
  25.0400000   0.0000000   0.0000000
   0.0000000  27.1065951   0.0000000
   0.0000000   0.0000000  25.1000000

PRIMCOORD
1600 1
13    1.565000    0.903553    3.112964
 7    1.565000    0.903553    5.020564
13    0.000000    1.807106    0.692414
 7    0.000000    1.807106    2.600014
13    0.000000    3.614213    3.277691
 7    0.000000    3.614213    5.185291
13    1.565000    4.517766    0.757996
 7    1.565000    4.517766    2.665596
13    1.565000    0.903553    8.132964
 7    1.565000    0.903553   10.040564
13    0.000000    1.807106    5.712414
 7    0.000000    1.807106    7.620014
13    0.000000    3.614213    8.297691
 7    0.000000    3.614213   10.205291
13    1.565000    4.517766    5.777996
 7    1.565000    4.517766    7.685596
13    1.565000    0.903553   13.152964
 7    1.565000    0.903553   15.060564
13    0.000000    1.807106   10.732414
 7    0.000000    1.807106   12.640014
13    0.000000    3.614213   13.317691
 7    0.000000    3.614213   15.225291
13    1.565000    4.517766   10.797996
 7    1.565000    4.517766   12.705596
13    1.565000    0.903553   18.172964
 7    1.565000    0.903553   20.080564
13    0.000000    1.807106   15.752414
 7    0.000000    1.807106   17.660014
13    0.000000    3.614213   18.337691
 7    0.000000    3.614213   20.245291
13    1.565000    4.517766   15.817996
 7    1.565000    4.517766   17.725596
13    1.565000    0.903553   23.192964
 7    1.565000    0.903553   25.100564
13    0.000000    1.807106   20.772414
 7    0.000000    1.807106   22.680014
13    0.000000    3.614213   23.357691
 7    0.000000    3.614213   25.265291
13    1.565000    4.517766   20.837996
 7    1.565000    4.517766   22.745596
13    4.695000    0.903553    2.975154
 7    4.695000    0.903553    4.882754
13    3.130000    1.807106    0.572144
 7    3.130000    1.807106    2.479744
13    3.130000    3.614213    3.159914
 7    3.130000    3.614213    5.067514
13    4.695000    4.517766    0.617924
 7    4.695000    4.517766    2.525524
13    4.695000    0.903553    7.995154
 7    4.695000    0.903553    9.902754
13    3.130000    1.807106    5.592144
 7    3.130000    1.807106    7.499744
13    3.130000    3.614213    8.179914
 7    3.130000    3.614213   10.087514
13    4.695000    4.517766    5.637924
 7    4.695000    4.517766    7.545524
13    4.695000    0.903553   13.015154
 7    4.695000    0.903553   14.922754
13    3.130000    1.807106   10.612144
 7    3.130000    1.807106   12.519744
13    3.130000    3.614213   13.199914
 7    3.130000    3.614213   15.107514
13    4.695000    4.517766   10.657924
 7    4.695000    4.517766   12.565524
13    4.695000    0.903553   18.035154
 7    4.695000    0.903553   19.942754
13    3.130000    1.807106   15.632144
 7    3.130000    1.807106   17.539744
13    3.130000    3.614213   18.219914
 7    3.130000    3.614213   20.127514
13    4.695000    4.517766   15.677924
 7    4.695000    4.517766   17.585524
13    4.695000    0.903553   23.055154
 7    4.695000    0.903553   24.962754
13    3.130000    1.807106   20.652144
 7    3.130000    1.807106   22.559744
13    3.130000    3.614213   23.239914
 7    3.130000    3.614213   25.147514
13    4.695000    4.517766   20.697924
 7    4.695000    4.517766   22.605524
13    7.825000    0.903553    2.797515
 7    7.825000    0.903553    4.705115
13    6.260000    1.807106    0.409764
 7    6.260000    1.807106    2.317364
13    6.260000    3.614213    2.989568
 7    6.260000    3.614213    4.897168
13    7.825000    4.517766    0.406634
 7    7.825000    4.517766    2.314234
13    7.825000    0.903553    7.817515
 7    7.825000    0.903553    9.725115
13    6.260000    1.807106    5.429764
 7    6.260000    1.807106    7.337364
13    6.260000    3.614213    8.009568
 7    6.260000    3.614213    9.917168
13    7.825000    4.517766    5.426634
 7    7.825000    4.517766    7.334234
13    7.825000    0.903553   12.837515
 7    7.825000    0.903553   14.745115
13    6.260000    1.807106   10.449764
 7    6.260000    1.807106   12.357364
13    6.260000    3.614213   13.029568
 7    6.260000    3.614213   14.937168
13    7.825000    4.517766   10.446634
 7    7.825000    4.517766   12.354234
13    7.825000    0.903553   17.857515
 7    7.825000    0.903553   19.765115
13    6.260000    1.807106   15.469764
 7    6.260000    1.807106   17.377364
13    6.260000    3.614213   18.049568
 7    6.260000    3.614213   19.957168
13    7.825000    4.517766   15.466634
 7    7.825000    4.517766   17.374234
13    7.825000    0.903553   22.877515
 7    7.825000    0.903553   24.785115
13    6.260000    1.807106   20.489764
 7    6.260000    1.807106   22.397364
13    6.260000    3.614213   23.069568
 7    6.260000    3.614213   24.977168
13    7.825000    4.517766   20.486634
 7    7.825000    4.517766   22.394234
13   10.955000    0.903553    2.585020
 7   10.955000    0.903553    4.492620
13    9.390000    1.807106    0.200279
 7    9.390000    1.807106    2.107879
13    9.390000    3.614213    2.751075
 7    9.390000    3.614213    4.658675
13   10.955000    4.517766    0.110869
 7   10.955000    4.517766    2.018469
13   10.955000    0.903553    7.605020
 7   10.955000    0.903553    9.512620
13    9.390000    1.807106    5.220279
 7    9.390000    1.807106    7.127879
13    9.390000    3.614213    7.771075
 7    9.390000    3.614213    9.678675
13   10.955000    4.517766    5.130869
 7   10.955000    4.517766    7.038469
13   10.955000    0.903553   12.625020
 7   10.955000    0.903553   14.532620
13    9.390000    1.807106   10.240279
 7    9.390000    1.807106   12.147879
13    9.390000    3.614213   12.791075
 7    9.390000    3.614213   14.698675
13   10.955000    4.517766   10.150869
 7   10.955000    4.517766   12.058469
13   10.955000    0.903553   17.645020
 7   10.955000    0.903553   19.552620
13    9.390000    1.807106   15.260279
 7    9.390000    1.807106   17.167879
13    9.390000    3.614213   17.811075
 7    9.390000    3.614213   19.718675
13   10.955000    4.517766   15.170869
 7   10.955000    4.517766   17.078469
13   10.955000    0.903553   22.665020
 7   10.955000    0.903553   24.572620
13    9.390000    1.807106   20.280279
 7    9.390000    1.807106   22.187879
13    9.390000    3.614213   22.831075
 7    9.390000    3.614213   24.738675
13   10.955000    4.517766   20.190869
 7   10.955000    4.517766   22.098469
13   14.085000    0.903553    2.361608
 7   14.085000    0.903553    4.269208
13   12.520000    1.807106   -0.040724
 7   12.520000    1.807106    1.866876
13   12.520000    3.614213    2.460520
 7   12.520000    3.614213    4.368120
13   14.085000    4.517766   -0.217129
 7   14.085000    4.517766    1.690471
13   14.085000    0.903553    7.381608
 7   14.085000    0.903553    9.289208
13   12.520000    1.807106    4.979276
 7   12.520000    1.807106    6.886876
13   12.520000    3.614213    7.480520
 7   12.520000    3.614213    9.388120
13   14.085000    4.517766    4.802871
 7   14.085000    4.517766    6.710471
13   14.085000    0.903553   12.401608
 7   14.085000    0.903553   14.309208
13   12.520000    1.807106    9.999276
 7   12.520000    1.807106   11.906876
13   12.520000    3.614213   12.500520
 7   12.520000    3.614213   14.408120
13   14.085000    4.517766    9.822871
 7   14.085000    4.517766   11.730471
13   14.085000    0.903553   17.421608
 7   14.085000    0.903553   19.329208
13   12.520000    1.807106   15.019276
 7   12.520000    1.807106   16.926876
13   12.520000    3.614213   17.520520
 7   12.520000    3.614213   19.428120
13   14.085000    4.517766   14.842871
 7   14.085000    4.517766   16.750471
13   14.085000    0.903553   22.441608
 7   14.085000    0.903553   24.349208
13   12.520000    1.807106   20.039276
 7   12.520000    1.807106   21.946876
13   12.520000    3.614213   22.540520
 7   12.520000    3.614213   24.448120
13   14.085000    4.517766   19.862871
 7   14.085000    4.517766   21.770471
13   17.215000    0.903553    2.158989
 7   17.215000    0.903553    4.066589
13   15.650000    1.807106   -0.274734
 7   15.650000    1.807106    1.632866
13   15.650000    3.614213    2.182005
 7   15.650000    3.614213    4.089605
13   17.215000    4.517766   -0.486325
 7   17.215000    4.517766    1.421275
13   17.215000    0.903553    7.178989
 7   17.215000    0.903553    9.086589
13   15.650000    1.807106    4.745266
 7   15.650000    1.807106    6.652866
13   15.650000    3.614213    7.202005
 7   15.650000    3.614213    9.109605
13   17.215000    4.517766    4.533675
 7   17.215000    4.517766    6.441275
13   17.215000    0.903553   12.198989
 7   17.215000    0.903553   14.106589
13   15.650000    1.807106    9.765266
 7   15.650000    1.807106   11.672866
13   15.650000    3.614213   12.222005
 7   15.650000    3.614213   14.129605
13   17.215000    4.517766    9.553675
 7   17.215000    4.517766   11.461275
13   17.215000    0.903553   17.218989
 7   17.215000    0.903553   19.126589
13   15.650000    1.807106   14.785266
 7   15.650000    1.807106   16.692866
13   15.650000    3.614213   17.242005
 7   15.650000    3.614213   19.149605
13   17.215000    4.517766   14.573675
 7   17.215000    4.517766   16.481275
13   17.215000    0.903553   22.238989
 7   17.215000    0.903553   24.146589
13   15.650000    1.807106   19.805266
 7   15.650000    1.807106   21.712866
13   15.650000    3.614213   22.262005
 7   15.650000    3.614213   24.169605
13   17.215000    4.517766   19.593675
 7   17.215000    4.517766   21.501275
13   20.345000    0.903553    1.994826
 7   20.345000    0.903553    3.902426
13   18.780000    1.807106   -0.468960
 7   18.780000    1.807106    1.438640
13   18.780000    3.614213    1.966781
 7   18.780000    3.614213    3.874381
13   20.345000    4.517766   -0.671009
 7   20.345000    4.517766    1.236591
13   20.345000    0.903553    7.014826
 7   20.345000    0.903553    8.922426
13   18.780000    1.807106    4.551040
 7   18.780000    1.807106    6.458640
13   18.780000    3.614213    6.986781
 7   18.780000    3.614213    8.894381
13   20.345000    4.517766    4.348991
 7   20.345000    4.517766    6.256591
13   20.345000    0.903553   12.034826
 7   20.345000    0.903553   13.942426
13   18.780000    1.807106    9.571040
 7   18.780000    1.807106   11.478640
13   18.780000    3.614213   12.006781
 7   18.780000    3.614213   13.914381
13   20.345000    4.517766    9.368991
 7   20.345000    4.517766   11.276591
13   20.345000    0.903553   17.054826
 7   20.345000    0.903553   18.962426
13   18.780000    1.807106   14.591040
 7   18.780000    1.807106   16.498640
13   18.780000    3.614213   17.026781
 7   18.780000    3.614213   18.934381
13   20.345000    4.517766   14.388991
 7   20.345000    4.517766   16.296591
13   20.345000    0.903553   22.074826
 7   20.345000    0.903553   23.982426
13   18.780000    1.807106   19.611040
 7   18.780000    1.807106   21.518640
13   18.780000    3.614213   22.046781
 7   18.780000    3.614213   23.954381
13   20.345000    4.517766   19.408991
 7   20.345000    4.517766   21.316591
13   23.475000    0.903553    1.869102
 7   23.475000    0.903553    3.776702
13   21.910000    1.807106   -0.616258
 7   21.910000    1.807106    1.291342
13   21.910000    3.614213    1.816093
 7   21.910000    3.614213    3.723693
13   23.475000    4.517766   -0.793352
 7   23.475000    4.517766    1.114248
13   23.475000    0.903553    6.889102
 7   23.475000    0.903553    8.796702
13   21.910000    1.807106    4.403742
 7   21.910000    1.807106    6.311342
13   21.910000    3.614213    6.836093
 7   21.910000    3.614213    8.743693
13   23.475000    4.517766    4.226648
 7   23.475000    4.517766    6.134248
13   23.475000    0.903553   11.909102
 7   23.475000    0.903553   13.816702
13   21.910000    1.807106    9.423742
 7   21.910000    1.807106   11.331342
13   21.910000    3.614213   11.856093
 7   21.910000    3.614213   13.763693
13   23.475000    4.517766    9.246648
 7   23.475000    4.517766   11.154248
13   23.475000    0.903553   16.929102
 7   23.475000    0.903553   18.836702
13   21.910000    1.807106   14.443742
 7   21.910000    1.807106   16.351342
13   21.910000    3.614213   16.876093
 7   21.910000    3.614213   18.783693
13   23.475000    4.517766   14.266648
 7   23.475000    4.517766   16.174248
13   23.475000    0.903553   21.949102
 7   23.475000    0.903553   23.856702
13   21.910000    1.807106   19.463742
 7   21.910000    1.807106   21.371342
13   21.910000    3.614213   21.896093
 7   21.910000    3.614213   23.803693
13   23.475000    4.517766   19.286648
 7   23.475000    4.517766   21.194248
13    1.565000    6.324872    3.367029
 7    1.565000    6.324872    5.274629
13    0.000000    7.228425    0.952624
 7    0.000000    7.228425    2.860224
13    0.000000    9.035532    3.571500
 7    0.000000    9.035532    5.479100
13    1.565000    9.939085    1.099211
 7    1.565000    9.939085    3.006811
13    1.565000    6.324872    8.387029
 7    1.565000    6.324872   10.294629
13    0.000000    7.228425    5.972624
 7    0.000000    7.228425    7.880224
13    0.000000    9.035532    8.591500
 7    0.000000    9.035532   10.499100
13    1.565000    9.939085    6.119211
 7    1.565000    9.939085    8.026811
13    1.565000    6.324872   13.407029
 7    1.565000    6.324872   15.314629
13    0.000000    7.228425   10.992624
 7    0.000000    7.228425   12.900224
13    0.000000    9.035532   13.611500
 7    0.000000    9.035532   15.519100
13    1.565000    9.939085   11.139211
 7    1.565000    9.939085   13.046811
13    1.565000    6.324872   18.427029
 7    1.565000    6.324872   20.334629
13    0.000000    7.228425   16.012624
 7    0.000000    7.228425   17.920224
13    0.000000    9.035532   18.631500
 7    0.000000    9.035532   20.539100
13    1.565000    9.939085   16.159211
 7    1.565000    9.939085   18.066811
13    1.565000    6.324872   23.447029
 7    1.565000    6.324872   25.354629
13    0.000000    7.228425   21.032624
 7    0.000000    7.228425   22.940224
13    0.000000    9.035532   23.651500
 7    0.000000    9.035532   25.559100
13    1.565000    9.939085   21.179211
 7    1.565000    9.939085   23.086811
13    4.695000    6.324872    3.237300
 7    4.695000    6.324872    5.144900
13    3.130000    7.228425    0.860682
 7    3.130000    7.228425    2.768282
13    3.130000    9.035532    3.507303
 7    3.130000    9.035532    5.414903
13    4.695000    9.939085    1.035305
 7    4.695000    9.939085    2.942905
13    4.695000    6.324872    8.257300
 7    4.695000    6.324872   10.164900
13    3.130000    7.228425    5.880682
 7    3.130000    7.228425    7.788282
13    3.130000    9.035532    8.527303
 7    3.130000    9.035532   10.434903
13    4.695000    9.939085    6.055305
 7    4.695000    9.939085    7.962905
13    4.695000    6.324872   13.277300
 7    4.695000    6.324872   15.184900
13    3.130000    7.228425   10.900682
 7    3.130000    7.228425   12.808282
13    3.130000    9.035532   13.547303
 7    3.130000    9.035532   15.454903
13    4.695000    9.939085   11.075305
 7    4.695000    9.939085   12.982905
13    4.695000    6.324872   18.297300
 7    4.695000    6.324872   20.204900
13    3.130000    7.228425   15.920682
 7    3.130000    7.228425   17.828282
13    3.130000    9.035532   18.567303
 7    3.130000    9.035532   20.474903
13    4.695000    9.939085   16.095305
 7    4.695000    9.939085   18.002905
13    4.695000    6.324872   23.317300
 7    4.695000    6.324872   25.224900
13    3.130000    7.228425   20.940682
 7    3.130000    7.228425   22.848282
13    3.130000    9.035532   23.587303
 7    3.130000    9.035532   25.494903
13    4.695000    9.939085   21.115305
 7    4.695000    9.939085   23.022905
13    7.825000    6.324872    3.016750
 7    7.825000    6.324872    4.924350
13    6.260000    7.228425    0.700900
 7    6.260000    7.228425    2.608500
13    6.260000    9.035532    3.384115
 7    6.260000    9.035532    5.291715
13    7.825000    9.939085    0.888645
 7    7.825000    9.939085    2.796245
13    7.825000    6.324872    8.036750
 7    7.825000    6.324872    9.944350
13    6.260000    7.228425    5.720900
 7    6.260000    7.228425    7.628500
13    6.260000    9.035532    8.404115
 7    6.260000    9.035532   10.311715
13    7.825000    9.939085    5.908645
 7    7.825000    9.939085    7.816245
13    7.825000    6.324872   13.056750
 7    7.825000    6.324872   14.964350
13    6.260000    7.228425   10.740900
 7    6.260000    7.228425   12.648500
13    6.260000    9.035532   13.424115
 7    6.260000    9.035532   15.331715
13    7.825000    9.939085   10.928645
 7    7.825000    9.939085   12.836245
13    7.825000    6.324872   18.076750
 7    7.825000    6.324872   19.984350
13    6.260000    7.228425   15.760900
 7    6.260000    7.228425   17.668500
13    6.260000    9.035532   18.444115
 7    6.260000    9.035532   20.351715
13    7.825000    9.939085   15.948645
 7    7.825000    9.939085   17.856245
13    7.825000    6.324872   23.096750
 7    7.825000    6.324872   25.004350
13    6.260000    7.228425   20.780900
 7    6.260000    7.228425   22.688500
13    6.260000    9.035532   23.464115
 7    6.260000    9.035532   25.371715
13    7.825000    9.939085   20.968645
 7    7.825000    9.939085   22.876245
13   10.955000    6.324872    2.655488
 7   10.955000    6.324872    4.563088
13    9.390000    7.228425    0.399901
 7    9.390000    7.228425    2.307501
13    9.390000    9.035532    3.086764
 7    9.390000    9.035532    4.994364
13   10.955000    9.939085    0.374932
 7   10.955000    9.939085    2.282532
13   10.955000    6.324872    7.675488
 7   10.955000    6.324872    9.583088
13    9.390000    7.228425    5.419901
 7    9.390000    7.228425    7.327501
13    9.390000    9.035532    8.106764
 7    9.390000    9.035532   10.014364
13   10.955000    9.939085    5.394932
 7   10.955000    9.939085    7.302532
13   10.955000    6.324872   12.695488
 7   10.955000    6.324872   14.603088
13    9.390000    7.228425   10.439901
 7    9.390000    7.228425   12.347501
13    9.390000    9.035532   13.126764
 7    9.390000    9.035532   15.034364
13   10.955000    9.939085   10.414932
 7   10.955000    9.939085   12.322532
13   10.955000    6.324872   17.715488
 7   10.955000    6.324872   19.623088
13    9.390000    7.228425   15.459901
 7    9.390000    7.228425   17.367501
13    9.390000    9.035532   18.146764
 7    9.390000    9.035532   20.054364
13   10.955000    9.939085   15.434932
 7   10.955000    9.939085   17.342532
13   10.955000    6.324872   22.735488
 7   10.955000    6.324872   24.643088
13    9.390000    7.228425   20.479901
 7    9.390000    7.228425   22.387501
13    9.390000    9.035532   23.166764
 7    9.390000    9.035532   25.074364
13   10.955000    9.939085   20.454932
 7   10.955000    9.939085   22.362532
13   14.085000    6.324872    2.228699
 7   14.085000    6.324872    4.136299
13   12.520000    7.228425   -0.086727
 7   12.520000    7.228425    1.820873
13   12.520000    9.035532    2.371266
 7   12.520000    9.035532    4.278866
13   14.085000    9.939085   -0.632141
 7   14.085000    9.939085    1.275459
13   14.085000    6.324872    7.248699
 7   14.085000    6.324872    9.156299
13   12.520000    7.228425    4.933273
 7   12.520000    7.228425    6.840873
13   12.520000    9.035532    7.391266
 7   12.520000    9.035532    9.298866
13   14.085000    9.939085    4.387859
 7   14.085000    9.939085    6.295459
13   14.085000    6.324872   12.268699
 7   14.085000    6.324872   14.176299
13   12.520000    7.228425    9.953273
 7   12.520000    7.228425   11.860873
13   12.520000    9.035532   12.411266
 7   12.520000    9.035532   14.318866
13   14.085000    9.939085    9.407859
 7   14.085000    9.939085   11.315459
13   14.085000    6.324872   17.288699
 7   14.085000    6.324872   19.196299
13   12.520000    7.228425   14.973273
 7   12.520000    7.228425   16.880873
13   12.520000    9.035532   17.431266
 7   12.520000    9.035532   19.338866
13   14.085000    9.939085   14.427859
 7   14.085000    9.939085   16.335459
13   14.085000    6.324872   22.308699
 7   14.085000    6.324872   24.216299
13   12.520000    7.228425   19.993273
 7   12.520000    7.228425   21.900873
13   12.520000    9.035532   22.451266
 7   12.520000    9.035532   24.358866
13   14.085000    9.939085   19.447859
 7   14.085000    9.939085   21.355459
13   17.215000    6.324872    1.916237
 7   17.215000    6.324872    3.823837
13   15.650000    7.228425   -0.521718
 7   15.650000    7.228425    1.385882
13   15.650000    9.035532    1.799990
 7   15.650000    9.035532    3.707590
13   17.215000    9.939085   -0.954310
 7   17.215000    9.939085    0.953290
13   17.215000    6.324872    6.936237
 7   17.215000    6.324872    8.843837
13   15.650000    7.228425    4.498282
 7   15.650000    7.228425    6.405882
13   15.650000    9.035532    6.819990
 7   15.650000    9.035532    8.727590
13   17.215000    9.939085    4.065690
 7   17.215000    9.939085    5.973290
13   17.215000    6.324872   11.956237
 7   17.215000    6.324872   13.863837
13   15.650000    7.228425    9.518282
 7   15.650000    7.228425   11.425882
13   15.650000    9.035532   11.839990
 7   15.650000    9.035532   13.747590
13   17.215000    9.939085    9.085690
 7   17.215000    9.939085   10.993290
13   17.215000    6.324872   16.976237
 7   17.215000    6.324872   18.883837
13   15.650000    7.228425   14.538282
 7   15.650000    7.228425   16.445882
13   15.650000    9.035532   16.859990
 7   15.650000    9.035532   18.767590
13   17.215000    9.939085   14.105690
 7   17.215000    9.939085   16.013290
13   17.215000    6.324872   21.996237
 7   17.215000    6.324872   23.903837
13   15.650000    7.228425   19.558282
 7   15.650000    7.228425   21.465882
13   15.650000    9.035532   21.879990
 7   15.650000    9.035532   23.787590
13   17.215000    9.939085   19.125690
 7   17.215000    9.939085   21.033290
13   20.345000    6.324872    1.732154
 7   20.345000    6.324872    3.639754
13   18.780000    7.228425   -0.765037
 7   18.780000    7.228425    1.142563
13   18.780000    9.035532    1.584322
 7   18.780000    9.035532    3.491922
13   20.345000    9.939085   -1.061557
 7   20.345000    9.939085    0.846043
13   20.345000    6.324872    6.752154
 7   20.345000    6.324872    8.659754
13   18.780000    7.228425    4.254963
 7   18.780000    7.228425    6.162563
13   18.780000    9.035532    6.604322
 7   18.780000    9.035532    8.511922
13   20.345000    9.939085    3.958443
 7   20.345000    9.939085    5.866043
13   20.345000    6.324872   11.772154
 7   20.345000    6.324872   13.679754
13   18.780000    7.228425    9.274963
 7   18.780000    7.228425   11.182563
13   18.780000    9.035532   11.624322
 7   18.780000    9.035532   13.531922
13   20.345000    9.939085    8.978443
 7   20.345000    9.939085   10.886043
13   20.345000    6.324872   16.792154
 7   20.345000    6.324872   18.699754
13   18.780000    7.228425   14.294963
 7   18.780000    7.228425   16.202563
13   18.780000    9.035532   16.644322
 7   18.780000    9.035532   18.551922
13   20.345000    9.939085   13.998443
 7   20.345000    9.939085   15.906043
13   20.345000    6.324872   21.812154
 7   20.345000    6.324872   23.719754
13   18.780000    7.228425   19.314963
 7   18.780000    7.228425   21.222563
13   18.780000    9.035532   21.664322
 7   18.780000    9.035532   23.571922
13   20.345000    9.939085   19.018443
 7   20.345000    9.939085   20.926043
13   23.475000    6.324872    1.621953
 7   23.475000    6.324872    3.529553
13   21.910000    7.228425   -0.896483
 7   21.910000    7.228425    1.011117
13   21.910000    9.035532    1.487230
 7   21.910000    9.035532    3.394830
13   23.475000    9.939085   -1.113020
 7   23.475000    9.939085    0.794580
13   23.475000    6.324872    6.641953
 7   23.475000    6.324872    8.549553
13   21.910000    7.228425    4.123517
 7   21.910000    7.228425    6.031117
13   21.910000    9.035532    6.507230
 7   21.910000    9.035532    8.414830
13   23.475000    9.939085    3.906980
 7   23.475000    9.939085    5.814580
13   23.475000    6.324872   11.661953
 7   23.475000    6.324872   13.569553
13   21.910000    7.228425    9.143517
 7   21.910000    7.228425   11.051117
13   21.910000    9.035532   11.527230
 7   21.910000    9.035532   13.434830
13   23.475000    9.939085    8.926980
 7   23.475000    9.939085   10.834580
13   23.475000    6.324872   16.681953
 7   23.475000    6.324872   18.589553
13   21.910000    7.228425   14.163517
 7   21.910000    7.228425   16.071117
13   21.910000    9.035532   16.547230
 7   21.910000    9.035532   18.454830
13   23.475000    9.939085   13.946980
 7   23.475000    9.939085   15.854580
13   23.475000    6.324872   21.701953
 7   23.475000    6.324872   23.609553
13   21.910000    7.228425   19.183517
 7   21.910000    7.228425   21.091117
13   21.910000    9.035532   21.567230
 7   21.910000    9.035532   23.474830
13   23.475000    9.939085   18.966980
 7   23.475000    9.939085   20.874580
13    1.565000   11.746191    3.745571
 7    1.565000   11.746191    5.653171
13    0.000000   12.649744    1.298218
 7    0.000000   12.649744    3.205818
13    0.000000   14.456851    3.926347
 7    0.000000   14.456851    5.833947
13    1.565000   15.360404    1.503911
 7    1.565000   15.360404    3.411511
13    1.565000   11.746191    8.765571
 7    1.565000   11.746191   10.673171
13    0.000000   12.649744    6.318218
 7    0.000000   12.649744    8.225818
13    0.000000   14.456851    8.946347
 7    0.000000   14.456851   10.853947
13    1.565000   15.360404    6.523911
 7    1.565000   15.360404    8.431511
13    1.565000   11.746191   13.785571
 7    1.565000   11.746191   15.693171
13    0.000000   12.649744   11.338218
 7    0.000000   12.649744   13.245818
13    0.000000   14.456851   13.966347
 7    0.000000   14.456851   15.873947
13    1.565000   15.360404   11.543911
 7    1.565000   15.360404   13.451511
13    1.565000   11.746191   18.805571
 7    1.565000   11.746191   20.713171
13    0.000000   12.649744   16.358218
 7    0.000000   12.649744   18.265818
13    0.000000   14.456851   18.986347
 7    0.000000   14.456851   20.893947
13    1.565000   15.360404   16.563911
 7    1.565000   15.360404   18.471511
13    1.565000   11.746191   23.825571
 7    1.565000   11.746191   25.733171
13    0.000000   12.649744   21.378218
 7    0.000000   12.649744   23.285818
13    0.000000   14.456851   24.006347
 7    0.000000   14.456851   25.913947
13    1.565000   15.360404   21.583911
 7    1.565000   15.360404   23.491511
13    4.695000   11.746191    3.737252
 7    4.695000   11.746191    5.644852
13    3.130000   12.649744    1.313421
 7    3.130000   12.649744    3.221021
13    3.130000   14.456851    3.980886
 7    3.130000   14.456851    5.888486
13    4.695000   15.360404    1.599471
 7    4.695000   15.360404    3.507071
13    4.695000   11.746191    8.757252
 7    4.695000   11.746191   10.664852
13    3.130000   12.649744    6.333421
 7    3.130000   12.649744    8.241021
13    3.130000   14.456851    9.000886
 7    3.130000   14.456851   10.908486
13    4.695000   15.360404    6.619471
 7    4.695000   15.360404    8.527071
13    4.695000   11.746191   13.777252
 7    4.695000   11.746191   15.684852
13    3.130000   12.649744   11.353421
 7    3.130000   12.649744   13.261021
13    3.130000   14.456851   14.020886
 7    3.130000   14.456851   15.928486
13    4.695000   15.360404   11.639471
 7    4.695000   15.360404   13.547071
13    4.695000   11.746191   18.797252
 7    4.695000   11.746191   20.704852
13    3.130000   12.649744   16.373421
 7    3.130000   12.649744   18.281021
13    3.130000   14.456851   19.040886
 7    3.130000   14.456851   20.948486
13    4.695000   15.360404   16.659471
 7    4.695000   15.360404   18.567071
13    4.695000   11.746191   23.817252
 7    4.695000   11.746191   25.724852
13    3.130000   12.649744   21.393421
 7    3.130000   12.649744   23.301021
13    3.130000   14.456851   24.060886
 7    3.130000   14.456851   25.968486
13    4.695000   15.360404   21.679471
 7    4.695000   15.360404   23.587071
13    7.825000   11.746191    3.716489
 7    7.825000   11.746191    5.624089
13    6.260000   12.649744    1.345055
 7    6.260000   12.649744    3.252655
13    6.260000   14.456851    4.088121
 7    6.260000   14.456851    5.995721
13    7.825000   15.360404    1.796465
 7    7.825000   15.360404    3.704065
13    7.825000   11.746191    8.736489
 7    7.825000   11.746191   10.644089
13    6.260000   12.649744    6.365055
 7    6.260000   12.649744    8.272655
13    6.260000   14.456851    9.108121
 7    6.260000   14.456851   11.015721
13    7.825000   15.360404    6.816465
 7    7.825000   15.360404    8.724065
13    7.825000   11.746191   13.756489
 7    7.825000   11.746191   15.664089
13    6.260000   12.649744   11.385055
 7    6.260000   12.649744   13.292655
13    6.260000   14.456851   14.128121
 7    6.260000   14.456851   16.035721
13    7.825000   15.360404   11.836465
 7    7.825000   15.360404   13.744065
13    7.825000   11.746191   18.776489
 7    7.825000   11.746191   20.684089
13    6.260000   12.649744   16.405055
 7    6.260000   12.649744   18.312655
13    6.260000   14.456851   19.148121
 7    6.260000   14.456851   21.055721
13    7.825000   15.360404   16.856465
 7    7.825000   15.360404   18.764065
13    7.825000   11.746191   23.796489
 7    7.825000   11.746191   25.704089
13    6.260000   12.649744   21.425055
 7    6.260000   12.649744   23.332655
13    6.260000   14.456851   24.168121
 7    6.260000   14.456851   26.075721
13    7.825000   15.360404   21.876465
 7    7.825000   15.360404   23.784065
13   10.955000   11.746191    3.574636
 7   10.955000   11.746191    5.482236