CRYSTAL
PRIMVEC
  25.0400000   0.0000000   0.0000000
   0.0000000  27.1065951   0.0000000
   0.0000000   0.0000000  25.1000000
CONVVEC
  25.0400000   0.0000000   0.0000000
   0.0000000  27.1065951   0.0000000
   0.0000000   0.0000000  25.1000000

PRIMCOORD
1512 1
13    1.565000    0.525883    2.924188
 7    1.565000    0.509187    4.781120
13    0.000000    1.461594    0.477612
 7    0.000000    1.451138    2.352524
13    0.000000    3.292538    2.980542
 7    0.000000    3.277897    4.843756
13    1.565000    4.223616    0.524346
 7    1.565000    4.219466    2.407662
13    1.565000    0.477099    7.775282
 7    1.565000    0.459952    9.586644
13    0.000000    1.424207    5.384018
 7    0.000000    1.402922    7.218288
13    0.000000    3.240161    7.836187
 7    0.000000    3.214683    9.630496
13    1.565000    4.198856    5.452722
 7    1.565000    4.175298    7.289288
13    1.565000    0.450418   12.517048
 7    1.565000    0.459193   14.314305
13    0.000000    1.371870   10.165275
 7    0.000000    1.364796   11.951023
13    0.000000    3.198739   12.506444
 7    0.000000    3.213462   14.271839
13    1.565000    4.129301   10.207629
 7    1.565000    4.116628   11.952263
13    1.565000    0.488565   17.277378
 7    1.565000    0.508171   19.117299
13    0.000000    1.381064   14.870151
 7    0.000000    1.401718   16.681561
13    0.000000    3.255079   17.213041
 7    0.000000    3.276892   19.054406
13    1.565000    4.144482   14.811607
 7    1.565000    4.173781   16.610746
13    1.565000    0.533760   22.152563
 7    1.565000    0.544312   24.027931
13    0.000000    1.435099   19.682592
 7    0.000000    1.450433   21.544782
13    0.000000    3.298083   22.100440
 7    0.000000    3.303644   23.982968
13    1.565000    4.208529   19.618146
 7    1.565000    4.219084   21.489156
13    4.695000    0.525883    2.924188
 7    4.695000    0.509187    4.781120
13    3.130000    1.461594    0.477612
 7    3.130000    1.451138    2.352524
13    3.130000    3.292538    2.980542
 7    3.130000    3.277897    4.843756
13    4.695000    4.223616    0.524346
 7    4.695000    4.219466    2.407662
13    4.695000    0.477099    7.775282
 7    4.695000    0.459952    9.586644
13    3.130000    1.424207    5.384018
 7    3.130000    1.402922    7.218288
13    3.130000    3.240161    7.836187
 7    3.130000    3.214683    9.630496
13    4.695000    4.198856    5.452722
 7    4.695000    4.175298    7.289288
13    4.695000    0.450418   12.517048
 7    4.695000    0.459193   14.314305
13    3.130000    1.371870   10.165275
 7    3.130000    1.364796   11.951023
13    3.130000    3.198739   12.506444
 7    3.130000    3.213462   14.271839
13    4.695000    4.129301   10.207629
 7    4.695000    4.116628   11.952263
13    4.695000    0.488565   17.277378
 7    4.695000    0.508171   19.117299
13    3.130000    1.381064   14.870151
 7    3.130000    1.401718   16.681561
13    3.130000    3.255079   17.213041
 7    3.130000    3.276892   19.054406
13    4.695000    4.144482   14.811607
 7    4.695000    4.173781   16.610746
13    4.695000    0.533760   22.152563
 7    4.695000    0.544312   24.027931
13    3.130000    1.435099   19.682592
 7    3.130000    1.450433   21.544782
13    3.130000    3.298083   22.100440
 7    3.130000    3.303644   23.982968
13    4.695000    4.208529   19.618146
 7    4.695000    4.219084   21.489156
13    7.825000    0.525883    2.924188
 7    7.825000    0.509187    4.781120
13    6.260000    1.461594    0.477612
 7    6.260000    1.451138    2.352524
13    6.260000    3.292538    2.980542
 7    6.260000    3.277897    4.843756
13    7.825000    4.223616    0.524346
 7    7.825000    4.219466    2.407662
13    7.825000    0.477099    7.775282
 7    7.825000    0.459952    9.586644
13    6.260000    1.424207    5.384018
 7    6.260000    1.402922    7.218288
13    6.260000    3.240161    7.836187
 7    6.260000    3.214683    9.630496
13    7.825000    4.198856    5.452722
 7    7.825000    4.175298    7.289288
13    7.825000    0.450418   12.517048
 7    7.825000    0.459193   14.314305
13    6.260000    1.371870   10.165275
 7    6.260000    1.364796   11.951023
13    6.260000    3.198739   12.506444
 7    6.260000    3.213462   14.271839
13    7.825000    4.129301   10.207629
 7    7.825000    4.116628   11.952263
13    7.825000    0.488565   17.277378
 7    7.825000    0.508171   19.117299
13    6.260000    1.381064   14.870151
 7    6.260000    1.401718   16.681561
13    6.260000    3.255079   17.213041
 7    6.260000    3.276892   19.054406
13    7.825000    4.144482   14.811607
 7    7.825000    4.173781   16.610746
13    7.825000    0.533760   22.152563
 7    7.825000    0.544312   24.027931
13    6.260000    1.435099   19.682592
 7    6.260000    1.450433   21.544782
13    6.260000    3.298083   22.100440
 7    6.260000    3.303644   23.982968
13    7.825000    4.208529   19.618146
 7    7.825000    4.219084   21.489156
13   10.955000    0.525883    2.924188
 7   10.955000    0.509187    4.781120
13    9.390000    1.461594    0.477612
 7    9.390000    1.451138    2.352524
13    9.390000    3.292538    2.980542
 7    9.390000    3.277897    4.843756
13   10.955000    4.223616    0.524346
 7   10.955000    4.219466    2.407662
13   10.955000    0.477099    7.775282
 7   10.955000    0.459952    9.586644
13    9.390000    1.424207    5.384018
 7    9.390000    1.402922    7.218288
13    9.390000    3.240161    7.836187
 7    9.390000    3.214683    9.630496
13   10.955000    4.198856    5.452722
 7   10.955000    4.175298    7.289288
13   10.955000    0.450418   12.517048
 7   10.955000    0.459193   14.314305
13    9.390000    1.371870   10.165275
 7    9.390000    1.364796   11.951023
13    9.390000    3.198739   12.506444
 7    9.390000    3.213462   14.271839
13   10.955000    4.129301   10.207629
 7   10.955000    4.116628   11.952263
13   10.955000    0.488565   17.277378
 7   10.955000    0.508171   19.117299
13    9.390000    1.381064   14.870151
 7    9.390000    1.401718   16.681561
13    9.390000    3.255079   17.213041
 7    9.390000    3.276892   19.054406
13   10.955000    4.144482   14.811607
 7   10.955000    4.173781   16.610746
13   10.955000    0.533760   22.152563
 7   10.955000    0.544312   24.027931
13    9.390000    1.435099   19.682592
 7    9.390000    1.450433   21.544782
13    9.390000    3.298083   22.100440
 7    9.390000    3.303644   23.982968
13   10.955000    4.208529   19.618146
 7   10.955000    4.219084   21.489156
13   14.085000    0.525883    2.924188
 7   14.085000    0.509187    4.781120
13   12.520000    1.461594    0.477612
 7   12.520000    1.451138    2.352524
13   12.520000    3.292538    2.980542
 7   12.520000    3.277897    4.843756
13   14.085000    4.223616    0.524346
 7   14.085000    4.219466    2.407662
13   14.085000    0.477099    7.775282
 7   14.085000    0.459952    9.586644
13   12.520000    1.424207    5.384018
 7   12.520000    1.402922    7.218288
13   12.520000    3.240161    7.836187
 7   12.520000    3.214683    9.630496
13   14.085000    4.198856    5.452722
 7   14.085000    4.175298    7.289288
13   14.085000    0.450418   12.517048
 7   14.085000    0.459193   14.314305
13   12.520000    1.371870   10.165275
 7   12.520000    1.364796   11.951023
13   12.520000    3.198739   12.506444
 7   12.520000    3.213462   14.271839
13   14.085000    4.129301   10.207629
 7   14.085000    4.116628   11.952263
13   14.085000    0.488565   17.277378
 7   14.085000    0.508171   19.117299
13   12.520000    1.381064   14.870151
 7   12.520000    1.401718   16.681561
13   12.520000    3.255079   17.213041
 7   12.520000    3.276892   19.054406
13   14.085000    4.144482   14.811607
 7   14.085000    4.173781   16.610746
13   14.085000    0.533760   22.152563
 7   14.085000    0.544312   24.027931
13   12.520000    1.435099   19.682592
 7   12.520000    1.450433   21.544782
13   12.520000    3.298083   22.100440
 7   12.520000    3.303644   23.982968
13   14.085000    4.208529   19.618146
 7   14.085000    4.219084   21.489156
13   17.215000    0.525883    2.924188
 7   17.215000    0.509187    4.781120
13   15.650000    1.461594    0.477612
 7   15.650000    1.451138    2.352524
13   15.650000    3.292538    2.980542
 7   15.650000    3.277897    4.843756
13   17.215000    4.223616    0.524346
 7   17.215000    4.219466    2.407662
13   17.215000    0.477099    7.775282
 7   17.215000    0.459952    9.586644
13   15.650000    1.424207    5.384018
 7   15.650000    1.402922    7.218288
13   15.650000    3.240161    7.836187
 7   15.650000    3.214683    9.630496
13   17.215000    4.198856    5.452722
 7   17.215000    4.175298    7.289288
13   17.215000    0.450418   12.517048
 7   17.215000    0.459193   14.314305
13   15.650000    1.371870   10.165275
 7   15.650000    1.364796   11.951023
13   15.650000    3.198739   12.506444
 7   15.650000    3.213462   14.271839
13   17.215000    4.129301   10.207629
 7   17.215000    4.116628   11.952263
13   17.215000    0.488565   17.277378
 7   17.215000    0.508171   19.117299
13   15.650000    1.381064   14.870151
 7   15.650000    1.401718   16.681561
13   15.650000    3.255079   17.213041
 7   15.650000    3.276892   19.054406
13   17.215000    4.144482   14.811607
 7   17.215000    4.173781   16.610746
13   17.215000    0.533760   22.152563
 7   17.215000    0.544312   24.027931
13   15.650000    1.435099   19.682592
 7   15.650000    1.450433   21.544782
13   15.650000    3.298083   22.100440
 7   15.650000    3.303644   23.982968
13   17.215000    4.208529   19.618146
 7   17.215000    4.219084   21.489156
13   20.345000    0.525883    2.924188
 7   20.345000    0.509187    4.781120
13   18.780000    1.461594    0.477612
 7   18.780000    1.451138    2.352524
13   18.780000    3.292538    2.980542
 7   18.780000    3.277897    4.843756
13   20.345000    4.223616    0.524346
 7   20.345000    4.219466    2.407662
13   20.345000    0.477099    7.775282
 7   20.345000    0.459952    9.586644
13   18.780000    1.424207    5.384018
 7   18.780000    1.402922    7.218288
13   18.780000    3.240161    7.836187
 7   18.780000    3.214683    9.630496
13   20.345000    4.198856    5.452722
 7   20.345000    4.175298    7.289288
13   20.345000    0.450418   12.517048
 7   20.345000    0.459193   14.314305
13   18.780000    1.371870   10.165275
 7   18.780000    1.364796   11.951023
13   18.780000    3.198739   12.506444
 7   18.780000    3.213462   14.271839
13   20.345000    4.129301   10.207629
 7   20.345000    4.116628   11.952263
13   20.345000    0.488565   17.277378
 7   20.345000    0.508171   19.117299
13   18.780000    1.381064   14.870151
 7   18.780000    1.401718   16.681561
13   18.780000    3.255079   17.213041
 7   18.780000    3.276892   19.054406
13   20.345000    4.144482   14.811607
 7   20.345000    4.173781   16.610746
13   20.345000    0.533760   22.152563
 7   20.345000    0.544312   24.027931
13   18.780000    1.435099   19.682592
 7   18.780000    1.450433   21.544782
13   18.780000    3.298083   22.100440
 7   18.780000    3.303644   23.982968
13   20.345000    4.208529   19.618146
 7   20.345000    4.219084   21.489156
13   23.475000    0.525883    2.924188
 7   23.475000    0.509187    4.781120
13   21.910000    1.461594    0.477612
 7   21.910000    1.451138    2.352524
13   21.910000    3.292538    2.980542
 7   21.910000    3.277897    4.843756
13   23.475000    4.223616    0.524346
 7   23.475000    4.219466    2.407662
13   23.475000    0.477099    7.775282
 7   23.475000    0.459952    9.586644
13   21.910000    1.424207    5.384018
 7   21.910000    1.402922    7.218288
13   21.910000    3.240161    7.836187
 7   21.910000    3.214683    9.630496
13   23.475000    4.198856    5.452722
 7   23.475000    4.175298    7.289288
13   23.475000    0.450418   12.517048
 7   23.475000    0.459193   14.314305
13   21.910000    1.371870   10.165275
 7   21.910000    1.364796   11.951023
13   21.910000    3.198739   12.506444
 7   21.910000    3.213462   14.271839
13   23.475000    4.129301   10.207629
 7   23.475000    4.116628   11.952263
13   23.475000    0.488565   17.277378
 7   23.475000    0.508171   19.117299
13   21.910000    1.381064   14.870151
 7   21.910000    1.401718   16.681561
13   21.910000    3.255079   17.213041
 7   21.910000    3.276892   19.054406
13   23.475000    4.144482   14.811607
 7   23.475000    4.173781   16.610746
13   23.475000    0.533760   22.152563
 7   23.475000    0.544312   24.027931
13   21.910000    1.435099   19.682592
 7   21.910000    1.450433   21.544782
13   21.910000    3.298083   22.100440
 7   21.910000    3.303644   23.982968
13   23.475000    4.208529   19.618146
 7   23.475000    4.219084   21.489156
13    1.565000    6.067883    3.039508
 7    1.565000    6.063035    4.916188
13    0.000000    6.984563    0.567751
 7    0.000000    6.991663    2.461583
13    0.000000    8.839174    3.092344
 7    0.000000    8.854151    4.986533
13    1.565000    9.731790    0.603983
 7    1.565000    9.751028    2.506838
13    1.565000    6.030363    7.925972
 7    1.565000    5.993281    9.706908
13    0.000000    6.992502    5.532032
 7    0.000000    6.978126    7.386465
13    0.000000    8.863677    8.046236
 7    0.000000    8.834405    9.854097
13    1.565000    9.786588    5.605137
 7    1.565000    9.808111    7.493805
13    1.565000    5.962391   12.485835
 7    1.565000    5.991148   14.197229
13    0.000000    6.915248   10.289300
 7    0.000000    6.887204   11.954911
13    0.000000    8.764277   12.428951
 7    0.000000    8.831318   14.050234
13    1.565000    9.793220   10.476718
 7    1.565000    9.709760   11.964522
13    1.565000    6.046289   17.126848
 7    1.565000    6.062504   18.981193
13    0.000000    6.941854   14.711185
 7    0.000000    6.976814   16.512759
13    0.000000    8.864613   17.027428
 7    0.000000    8.854895   18.909638
13    1.565000    9.815307   14.545885
 7    1.565000    9.809117   16.402936
13    1.565000    6.067560   22.048146
 7    1.565000    6.063722   23.940120
13    0.000000    6.994582   19.548989
 7    0.000000    6.991961   21.434554
13    0.000000    8.830071   22.002402
 7    0.000000    8.814561   23.903331
13    1.565000    9.773558   19.488486
 7    1.565000    9.752146   21.388681
13    4.695000    6.067883    3.039508
 7    4.695000    6.063035    4.916188
13    3.130000    6.984563    0.567751
 7    3.130000    6.991663    2.461583
13    3.130000    8.839174    3.092344
 7    3.130000    8.854151    4.986533
13    4.695000    9.731790    0.603983
 7    4.695000    9.751028    2.506838
13    4.695000    6.030363    7.925972
 7    4.695000    5.993281    9.706908
13    3.130000    6.992502    5.532032
 7    3.130000    6.978126    7.386465
13    3.130000    8.863677    8.046236
 7    3.130000    8.834405    9.854097
13    4.695000    9.786588    5.605137
 7    4.695000    9.808111    7.493805
13    4.695000    5.962391   12.485835
 7    4.695000    5.991148   14.197229
13    3.130000    6.915248   10.289300
 7    3.130000    6.887204   11.954911
13    3.130000    8.764277   12.428951
 7    3.130000    8.831318   14.050234
13    4.695000    9.793220   10.476718
 7    4.695000    9.709760   11.964522
13    4.695000    6.046289   17.126848
 7    4.695000    6.062504   18.981193
13    3.130000    6.941854   14.711185
 7    3.130000    6.976814   16.512759
13    3.130000    8.864613   17.027428
 7    3.130000    8.854895   18.909638
13    4.695000    9.815307   14.545885
 7    4.695000    9.809117   16.402936
13    4.695000    6.067560   22.048146
 7    4.695000    6.063722   23.940120
13    3.130000    6.994582   19.548989
 7    3.130000    6.991961   21.434554
13    3.130000    8.830071   22.002402
 7    3.130000    8.814561   23.903331
13    4.695000    9.773558   19.488486
 7    4.695000    9.752146   21.388681
13    7.825000    6.067883    3.039508
 7    7.825000    6.063035    4.916188
13    6.260000    6.984563    0.567751
 7    6.260000    6.991663    2.461583
13    6.260000    8.839174    3.092344
 7    6.260000    8.854151    4.986533
13    7.825000    9.731790    0.603983
 7    7.825000    9.751028    2.506838
13    7.825000    6.030363    7.925972
 7    7.825000    5.993281    9.706908
13    6.260000    6.992502    5.532032
 7    6.260000    6.978126    7.386465
13    6.260000    8.863677    8.046236
 7    6.260000    8.834405    9.854097
13    7.825000    9.786588    5.605137
 7    7.825000    9.808111    7.493805
13    7.825000    5.962391   12.485835
 7    7.825000    5.991148   14.197229
13    6.260000    6.915248   10.289300
 7    6.260000    6.887204   11.954911
13    6.260000    8.764277   12.428951
 7    6.260000    8.831318   14.050234
13    7.825000    9.793220   10.476718
 7    7.825000    9.709760   11.964522
13    7.825000    6.046289   17.126848
 7    7.825000    6.062504   18.981193
13    6.260000    6.941854   14.711185
 7    6.260000    6.976814   16.512759
13    6.260000    8.864613   17.027428
 7    6.260000    8.854895   18.909638
13    7.825000    9.815307   14.545885
 7    7.825000    9.809117   16.402936
13    7.825000    6.067560   22.048146
 7    7.825000    6.063722   23.940120
13    6.260000    6.994582   19.548989
 7    6.260000    6.991961   21.434554
13    6.260000    8.830071   22.002402
 7    6.260000    8.814561   23.903331
13    7.825000    9.773558   19.488486
 7    7.825000    9.752146   21.388681
13   10.955000    6.067883    3.039508
 7   10.955000    6.063035    4.916188
13    9.390000    6.984563    0.567751
 7    9.390000    6.991663    2.461583
13    9.390000    8.839174    3.092344
 7    9.390000    8.854151    4.986533
13   10.955000    9.731790    0.603983
 7   10.955000    9.751028    2.506838
13   10.955000    6.030363    7.925972
 7   10.955000    5.993281    9.706908
13    9.390000    6.992502    5.532032
 7    9.390000    6.978126    7.386465
13    9.390000    8.863677    8.046236
 7    9.390000    8.834405    9.854097
13   10.955000    9.786588    5.605137
 7   10.955000    9.808111    7.493805
13   10.955000    5.962391   12.485835
 7   10.955000    5.991148   14.197229
13    9.390000    6.915248   10.289300
 7    9.390000    6.887204   11.954911
13    9.390000    8.764277   12.428951
 7    9.390000    8.831318   14.050234
13   10.955000    9.793220   10.476718
 7   10.955000    9.709760   11.964522
13   10.955000    6.046289   17.126848
 7   10.955000    6.062504   18.981193
13    9.390000    6.941854   14.711185
 7    9.390000    6.976814   16.512759
13    9.390000    8.864613   17.027428
 7    9.390000    8.854895   18.909638
13   10.955000    9.815307   14.545885
 7   10.955000    9.809117   16.402936
13   10.955000    6.067560   22.048146
 7   10.955000    6.063722   23.940120
13    9.390000    6.994582   19.548989
 7    9.390000    6.991961   21.434554
13    9.390000    8.830071   22.002402
 7    9.390000    8.814561   23.903331
13   10.955000    9.773558   19.488486
 7   10.955000    9.752146   21.388681
13   14.085000    6.067883    3.039508
 7   14.085000    6.063035    4.916188
13   12.520000    6.984563    0.567751
 7   12.520000    6.991663    2.461583
13   12.520000    8.839174    3.092344
 7   12.520000    8.854151    4.986533
13   14.085000    9.731790    0.603983
 7   14.085000    9.751028    2.506838
13   14.085000    6.030363    7.925972
 7   14.085000    5.993281    9.706908
13   12.520000    6.992502    5.532032
 7   12.520000    6.978126    7.386465
13   12.520000    8.863677    8.046236
 7   12.520000    8.834405    9.854097
13   14.085000    9.786588    5.605137
 7   14.085000    9.808111    7.493805
13   14.085000    5.962391   12.485835
 7   14.085000    5.991148   14.197229
13   12.520000    6.915248   10.289300
 7   12.520000    6.887204   11.954911
13   12.520000    8.764277   12.428951
 7   12.520000    8.831318   14.050234
13   14.085000    9.793220   10.476718
 7   14.085000    9.709760   11.964522
13   14.085000    6.046289   17.126848
 7   14.085000    6.062504   18.981193
13   12.520000    6.941854   14.711185
 7   12.520000    6.976814   16.512759
13   12.520000    8.864613   17.027428
 7   12.520000    8.854895   18.909638
13   14.085000    9.815307   14.545885
 7   14.085000    9.809117   16.402936
13   14.085000    6.067560   22.048146
 7   14.085000    6.063722   23.940120
13   12.520000    6.994582   19.548989
 7   12.520000    6.991961   21.434554
13   12.520000    8.830071   22.002402
 7   12.520000    8.814561   23.903331
13   14.085000    9.773558   19.488486
 7   14.085000    9.752146   21.388681
13   17.215000    6.067883    3.039508
 7   17.215000    6.063035    4.916188
13   15.650000    6.984563    0.567751
 7   15.650000    6.991663    2.461583
13   15.650000    8.839174    3.092344
 7   15.650000    8.854151    4.986533
13   17.215000    9.731790    0.603983
 7   17.215000    9.751028    2.506838
13   17.215000    6.030363    7.925972
 7   17.215000    5.993281    9.706908
13   15.650000    6.992502    5.532032
 7   15.650000    6.978126    7.386465
13   15.650000    8.863677    8.046236
 7   15.650000    8.834405    9.854097
13   17.215000    9.786588    5.605137
 7   17.215000    9.808111    7.493805
13   17.215000    5.962391   12.485835
 7   17.215000    5.991148   14.197229
13   15.650000    6.915248   10.289300
 7   15.650000    6.887204   11.954911
13   15.650000    8.764277   12.428951
 7   15.650000    8.831318   14.050234
13   17.215000    9.793220   10.476718
 7   17.215000    9.709760   11.964522
13   17.215000    6.046289   17.126848
 7   17.215000    6.062504   18.981193
13   15.650000    6.941854   14.711185
 7   15.650000    6.976814   16.512759
13   15.650000    8.864613   17.027428
 7   15.650000    8.854895   18.909638
13   17.215000    9.815307   14.545885
 7   17.215000    9.809117   16.402936
13   17.215000    6.067560   22.048146
 7   17.215000    6.063722   23.940120
13   15.650000    6.994582   19.548989
 7   15.650000    6.991961   21.434554
13   15.650000    8.830071   22.002402
 7   15.650000    8.814561   23.903331
13   17.215000    9.773558   19.488486
 7   17.215000    9.752146   21.388681
13   20.345000    6.067883    3.039508
 7   20.345000    6.063035    4.916188
13   18.780000    6.984563    0.567751
 7   18.780000    6.991663    2.461583
13   18.780000    8.839174    3.092344
 7   18.780000    8.854151    4.986533
13   20.345000    9.731790    0.603983
 7   20.345000    9.751028    2.506838
13   20.345000    6.030363    7.925972
 7   20.345000    5.993281    9.706908
13   18.780000    6.992502    5.532032
 7   18.780000    6.978126    7.386465
13   18.780000    8.863677    8.046236
 7   18.780000    8.834405    9.854097
13   20.345000    9.786588    5.605137
 7   20.345000    9.808111    7.493805
13   20.345000    5.962391   12.485835
 7   20.345000    5.991148   14.197229
13   18.780000    6.915248   10.289300
 7   18.780000    6.887204   11.954911
13   18.780000    8.764277   12.428951
 7   18.780000    8.831318   14.050234
13   20.345000    9.793220   10.476718
 7   20.345000    9.709760   11.964522
13   20.345000    6.046289   17.126848
 7   20.345000    6.062504   18.981193
13   18.780000    6.941854   14.711185
 7   18.780000    6.976814   16.512759
13   18.780000    8.864613   17.027428
 7   18.780000    8.854895   18.909638
13   20.345000    9.815307   14.545885
 7   20.345000    9.809117   16.402936
13   20.345000    6.067560   22.048146
 7   20.345000    6.063722   23.940120
13   18.780000    6.994582   19.548989
 7   18.780000    6.991961   21.434554
13   18.780000    8.830071   22.002402
 7   18.780000    8.814561   23.903331
13   20.345000    9.773558   19.488486
 7   20.345000    9.752146   21.388681
13   23.475000    6.067883    3.039508
 7   23.475000    6.063035    4.916188
13   21.910000    6.984563    0.567751
 7   21.910000    6.991663    2.461583
13   21.910000    8.839174    3.092344
 7   21.910000    8.854151    4.986533
13   23.475000    9.731790    0.603983
 7   23.475000    9.751028    2.506838
13   23.475000    6.030363    7.925972
 7   23.475000    5.993281    9.706908
13   21.910000    6.992502    5.532032
 7   21.910000    6.978126    7.386465
13   21.910000    8.863677    8.046236
 7   21.910000    8.834405    9.854097
13   23.475000    9.786588    5.605137
 7   23.475000    9.808111    7.493805
13   23.475000    5.962391   12.485835
 7   23.475000    5.991148   14.197229
13   21.910000    6.915248   10.289300
 7   21.910000    6.887204   11.954911
13   21.910000    8.764277   12.428951
 7   21.910000    8.831318   14.050234
13   23.475000    9.793220   10.476718
 7   23.475000    9.709760   11.964522
13   23.475000    6.046289   17.126848
 7   23.475000    6.062504   18.981193
13   21.910000    6.941854   14.711185
 7   21.910000    6.976814   16.512759
13   21.910000    8.864613   17.027428
 7   21.910000    8.854895   18.909638
13   23.475000    9.815307   14.545885
 7   23.475000    9.809117   16.402936
13   23.475000    6.067560   22.048146
 7   23.475000    6.063722   23.940120
13   21.910000    6.994582   19.548989
 7   21.910000    6.991961   21.434554
13   21.910000    8.830071   22.002402
 7   21.910000    8.814561   23.903331
13   23.475000    9.773558   19.488486
 7   23.475000    9.752146   21.388681
13    1.565000   11.579472    3.133936
 7    1.565000   11.609219    5.040638
13    0.000000   12.451041    0.634731
 7    0.000000   12.473693    2.543708
13    0.000000   14.269322    3.174082
 7    0.000000   14.288301    5.092181
13    1.565000   15.138282    0.667418
 7    1.565000   15.152148    2.583675
13    1.565000   11.678889    8.149915
 7    1.565000   11.750818   10.051783
13    0.000000   12.521306    5.660001
 7    0.000000   12.561295    7.572431
13    0.000000   14.311256    8.245845
 7    0.000000   14.293745   10.237409
13    1.565000   15.170837    5.722651
 7    1.565000   15.171878    7.666219
13    1.565000   11.899348   11.993894
 7    1.565000   11.756099   13.843997
13    0.000000   12.659984   10.715830
 7    0.000000   14.291027   13.649571
13    1.565000   15.113954   10.968162
13    1.565000   11.649973   16.948580
 7    1.565000   11.611062   18.854625
13    0.000000   12.619551   14.403027
 7    0.000000   12.563849   16.322392
13    0.000000   14.306111   16.874887
 7    0.000000   14.289331   18.802262
13    1.565000   15.146367   14.232650
 7    1.565000   15.171421   16.226105
13    1.565000   11.564915   21.965693
 7    1.565000   11.542914   23.872805
13    0.000000   12.502541   19.441723
 7    0.000000   12.475054   21.351401
13    0.000000   14.258673   21.930063
 7    0.000000   14.241277   23.842964
13    1.565000   15.165448   19.389480
 7    1.565000   15.152895   21.310938
13    4.695000   11.579472    3.133936
 7    4.695000   11.609219    5.040638
13    3.130000   12.451041    0.634731
 7    3.130000   12.473693    2.543708
13    3.130000   14.269322    3.174082
 7    3.130000   14.288301    5.092181
13    4.695000   15.138282    0.667418
 7    4.695000   15.152148    2.583675
13    4.695000   11.678889    8.149915
 7    4.695000   11.750818   10.051783
13    3.130000   12.521306    5.660001
 7    3.130000   12.561295    7.572431
13    3.130000   14.311256    8.245845
 7    3.130000   14.293745   10.237409
13    4.695000   15.170837    5.722651
 7    4.695000   15.171878    7.666219
13    4.695000   11.899348   11.993894
 7    4.695000   11.756099   13.843997
13    3.130000   12.659984   10.715830
 7    3.130000   14.291027   13.649571
13    4.695000   15.113954   10.968162
13    4.695000   11.649973   16.948580
 7    4.695000   11.611062   18.854625
13    3.130000   12.619551   14.403027
 7    3.130000   12.563849   16.322392
13    3.130000   14.306111   16.874887
 7    3.130000   14.289331   18.802262
13    4.695000   15.146367   14.232650
 7    4.695000   15.171421   16.226105
13    4.695000   11.564915   21.965693
 7    4.695000   11.542914   23.872805
13    3.130000   12.502541   19.441723
 7    3.130000   12.475054   21.351401
13    3.130000   14.258673   21.930063
 7    3.130000   14.241277   23.842964
13    4.695000   15.165448   19.389480
 7    4.695000   15.152895   21.310938
13    7.825000   11.579472    3.133936
 7    7.825000   11.609219    5.040638
13    6.260000   12.451041    0.634731
 7    6.260000   12.473693    2.543708
13    6.260000   14.269322    3.174082
 7    6.260000   14.288301    5.092181
13    7.825000   15.138282    0.667418
 7    7.825000   15.152148    2.583675
13    7.825000   11.678889    8.149915
 7    7.825000   11.750818   10.051783
13    6.260000   12.521306    5.660001
 7    6.260000   12.561295    7.572431
13    6.260000   14.311256    8.245845
 7    6.260000   14.293745   10.237409
13    7.825000   15.170837    5.722651
 7    7.825000   15.171878    7.666219
13    7.825000   11.899348   11.993894
 7    7.825000   11.756099   13.843997
13    6.260000   12.659984   10.715830
 7    6.260000   14.291027   13.649571
13    7.825000   15.113954   10.968162
13    7.825000   11.649973   16.948580
 7    7.825000   11.611062   18.854625
13    6.260000   12.619551   14.403027
 7    6.260000   12.563849   16.322392
13    6.260000   14.306111   16.874887
 7    6.260000   14.289331   18.802262
13    7.825000   15.146367   14.232650
 7    7.825000   15.171421   16.226105
13    7.825000   11.564915   21.965693
 7    7.825000   11.542914   23.872805
13    6.260000   12.502541   19.441723
 7    6.260000   12.475054   21.351401
13    6.260000   14.258673   21.930063
 7    6.260000   14.241277   23.842964
13    7.825000   15.165448   19.389480
 7    7.825000   15.152895   21.310938
13   10.955000   11.579472    3.133936
 7   10.955000   11.609219    5.040638
13    9.390000   12.451041    0.634731
 7    9.390000   12.473693    2.543708
13    9.390000   14.269322    3.174082
 7    9.390000   14.288301    5.092181
13   10.955000   15.138282    0.667418
 7   10.955000   15.152148    2.583675
13   10.955000   11.678889    8.149915
 7   10.955000   11.750818   10.051783
13    9.390000   12.521306    5.660001