CRYSTAL
PRIMVEC
  25.0400000   0.0000000   0.0000000
   0.0000000  27.1065951   0.0000000
   0.0000000   0.0000000  25.1000000
CONVVEC
  25.0400000   0.0000000   0.0000000
   0.0000000  27.1065951   0.0000000
   0.0000000   0.0000000  25.1000000

PRIMCOORD
1512 1
13    1.565000    0.903553    1.969672
 7    1.565000    0.903553    3.824892
13    0.000000    1.807106   -0.444461
 7    0.000000    1.807106    1.416500
13    0.000000    3.614213    2.080823
 7    0.000000    3.614213    3.928715
13    1.565000    4.517766   -0.322692
 7    1.565000    4.517766    1.540788
13    1.565000    0.903553    6.850471
 7    1.565000    0.903553    8.712522
13    0.000000    1.807106    4.439063
 7    0.000000    1.807106    6.287903
13    0.000000    3.614213    6.927287
 7    0.000000    3.614213    8.768359
13    1.565000    4.517766    4.554384
 7    1.565000    4.517766    6.385678
13    1.565000    0.903553   11.776498
 7    1.565000    0.903553   13.668645
13    0.000000    1.807106    9.317519
 7    0.000000    1.807106   11.192225
13    0.000000    3.614213   11.812005
 7    0.000000    3.614213   13.701091
13    1.565000    4.517766    9.374847
 7    1.565000    4.517766   11.233645
13    1.565000    0.903553   16.762196
 7    1.565000    0.903553   18.655006
13    0.000000    1.807106   14.277041
 7    0.000000    1.807106   16.172186
13    0.000000    3.614213   16.785641
 7    0.000000    3.614213   18.667915
13    1.565000    4.517766   14.311193
 7    1.565000    4.517766   16.198451
13    1.565000    0.903553   21.735049
 7    1.565000    0.903553   23.619387
13    0.000000    1.807106   19.256126
 7    0.000000    1.807106   21.140623
13    0.000000    3.614213   21.729788
 7    0.000000    3.614213   23.605090
13    1.565000    4.517766   19.260694
 7    1.565000    4.517766   21.132309
13    4.695000    0.903553    1.969672
 7    4.695000    0.903553    3.824892
13    3.130000    1.807106   -0.444461
 7    3.130000    1.807106    1.416500
13    3.130000    3.614213    2.080823
 7    3.130000    3.614213    3.928715
13    4.695000    4.517766   -0.322692
 7    4.695000    4.517766    1.540788
13    4.695000    0.903553    6.850471
 7    4.695000    0.903553    8.712522
13    3.130000    1.807106    4.439063
 7    3.130000    1.807106    6.287903
13    3.130000    3.614213    6.927287
 7    3.130000    3.614213    8.768359
13    4.695000    4.517766    4.554384
 7    4.695000    4.517766    6.385678
13    4.695000    0.903553   11.776498
 7    4.695000    0.903553   13.668645
13    3.130000    1.807106    9.317519
 7    3.130000    1.807106   11.192225
13    3.130000    3.614213   11.812005
 7    3.130000    3.614213   13.701091
13    4.695000    4.517766    9.374847
 7    4.695000    4.517766   11.233645
13    4.695000    0.903553   16.762196
 7    4.695000    0.903553   18.655006
13    3.130000    1.807106   14.277041
 7    3.130000    1.807106   16.172186
13    3.130000    3.614213   16.785641
 7    3.130000    3.614213   18.667915
13    4.695000    4.517766   14.311193
 7    4.695000    4.517766   16.198451
13    4.695000    0.903553   21.735049
 7    4.695000    0.903553   23.619387
13    3.130000    1.807106   19.256126
 7    3.130000    1.807106   21.140623
13    3.130000    3.614213   21.729788
 7    3.130000    3.614213   23.605090
13    4.695000    4.517766   19.260694
 7    4.695000    4.517766   21.132309
13    7.825000    0.903553    1.969672
 7    7.825000    0.903553    3.824892
13    6.260000    1.807106   -0.444461
 7    6.260000    1.807106    1.416500
13    6.260000    3.614213    2.080823
 7    6.260000    3.614213    3.928715
13    7.825000    4.517766   -0.322692
 7    7.825000    4.517766    1.540788
13    7.825000    0.903553    6.850471
 7    7.825000    0.903553    8.712522
13    6.260000    1.807106    4.439063
 7    6.260000    1.807106    6.287903
13    6.260000    3.614213    6.927287
 7    6.260000    3.614213    8.768359
13    7.825000    4.517766    4.554384
 7    7.825000    4.517766    6.385678
13    7.825000    0.903553   11.776498
 7    7.825000    0.903553   13.668645
13    6.260000    1.807106    9.317519
 7    6.260000    1.807106   11.192225
13    6.260000    3.614213   11.812005
 7    6.260000    3.614213   13.701091
13    7.825000    4.517766    9.374847
 7    7.825000    4.517766   11.233645
13    7.825000    0.903553   16.762196
 7    7.825000    0.903553   18.655006
13    6.260000    1.807106   14.277041
 7    6.260000    1.807106   16.172186
13    6.260000    3.614213   16.785641
 7    6.260000    3.614213   18.667915
13    7.825000    4.517766   14.311193
 7    7.825000    4.517766   16.198451
13    7.825000    0.903553   21.735049
 7    7.825000    0.903553   23.619387
13    6.260000    1.807106   19.256126
 7    6.260000    1.807106   21.140623
13    6.260000    3.614213   21.729788
 7    6.260000    3.614213   23.605090
13    7.825000    4.517766   19.260694
 7    7.825000    4.517766   21.132309
13   10.955000    0.903553    1.969672
 7   10.955000    0.903553    3.824892
13    9.390000    1.807106   -0.444461
 7    9.390000    1.807106    1.416500
13    9.390000    3.614213    2.080823
 7    9.390000    3.614213    3.928715
13   10.955000    4.517766   -0.322692
 7   10.955000    4.517766    1.540788
13   10.955000    0.903553    6.850471
 7   10.955000    0.903553    8.712522
13    9.390000    1.807106    4.439063
 7    9.390000    1.807106    6.287903
13    9.390000    3.614213    6.927287
 7    9.390000    3.614213    8.768359
13   10.955000    4.517766    4.554384
 7   10.955000    4.517766    6.385678
13   10.955000    0.903553   11.776498
 7   10.955000    0.903553   13.668645
13    9.390000    1.807106    9.317519
 7    9.390000    1.807106   11.192225
13    9.390000    3.614213   11.812005
 7    9.390000    3.614213   13.701091
13   10.955000    4.517766    9.374847
 7   10.955000    4.517766   11.233645
13   10.955000    0.903553   16.762196
 7   10.955000    0.903553   18.655006
13    9.390000    1.807106   14.277041
 7    9.390000    1.807106   16.172186
13    9.390000    3.614213   16.785641
 7    9.390000    3.614213   18.667915
13   10.955000    4.517766   14.311193
 7   10.955000    4.517766   16.198451
13   10.955000    0.903553   21.735049
 7   10.955000    0.903553   23.619387
13    9.390000    1.807106   19.256126
 7    9.390000    1.807106   21.140623
13    9.390000    3.614213   21.729788
 7    9.390000    3.614213   23.605090
13   10.955000    4.517766   19.260694
 7   10.955000    4.517766   21.132309
13   14.085000    0.903553    1.969672
 7   14.085000    0.903553    3.824892
13   12.520000    1.807106   -0.444461
 7   12.520000    1.807106    1.416500
13   12.520000    3.614213    2.080823
 7   12.520000    3.614213    3.928715
13   14.085000    4.517766   -0.322692
 7   14.085000    4.517766    1.540788
13   14.085000    0.903553    6.850471
 7   14.085000    0.903553    8.712522
13   12.520000    1.807106    4.439063
 7   12.520000    1.807106    6.287903
13   12.520000    3.614213    6.927287
 7   12.520000    3.614213    8.768359
13   14.085000    4.517766    4.554384
 7   14.085000    4.517766    6.385678
13   14.085000    0.903553   11.776498
 7   14.085000    0.903553   13.668645
13   12.520000    1.807106    9.317519
 7   12.520000    1.807106   11.192225
13   12.520000    3.614213   11.812005
 7   12.520000    3.614213   13.701091
13   14.085000    4.517766    9.374847
 7   14.085000    4.517766   11.233645
13   14.085000    0.903553   16.762196
 7   14.085000    0.903553   18.655006
13   12.520000    1.807106   14.277041
 7   12.520000    1.807106   16.172186
13   12.520000    3.614213   16.785641
 7   12.520000    3.614213   18.667915
13   14.085000    4.517766   14.311193
 7   14.085000    4.517766   16.198451
13   14.085000    0.903553   21.735049
 7   14.085000    0.903553   23.619387
13   12.520000    1.807106   19.256126
 7   12.520000    1.807106   21.140623
13   12.520000    3.614213   21.729788
 7   12.520000    3.614213   23.605090
13   14.085000    4.517766   19.260694
 7   14.085000    4.517766   21.132309
13   17.215000    0.903553    1.969672
 7   17.215000    0.903553    3.824892
13   15.650000    1.807106   -0.444461
 7   15.650000    1.807106    1.416500
13   15.650000    3.614213    2.080823
 7   15.650000    3.614213    3.928715
13   17.215000    4.517766   -0.322692
 7   17.215000    4.517766    1.540788
13   17.215000    0.903553    6.850471
 7   17.215000    0.903553    8.712522
13   15.650000    1.807106    4.439063
 7   15.650000    1.807106    6.287903
13   15.650000    3.614213    6.927287
 7   15.650000    3.614213    8.768359
13   17.215000    4.517766    4.554384
 7   17.215000    4.517766    6.385678
13   17.215000    0.903553   11.776498
 7   17.215000    0.903553   13.668645
13   15.650000    1.807106    9.317519
 7   15.650000    1.807106   11.192225
13   15.650000    3.614213   11.812005
 7   15.650000    3.614213   13.701091
13   17.215000    4.517766    9.374847
 7   17.215000    4.517766   11.233645
13   17.215000    0.903553   16.762196
 7   17.215000    0.903553   18.655006
13   15.650000    1.807106   14.277041
 7   15.650000    1.807106   16.172186
13   15.650000    3.614213   16.785641
 7   15.650000    3.614213   18.667915
13   17.215000    4.517766   14.311193
 7   17.215000    4.517766   16.198451
13   17.215000    0.903553   21.735049
 7   17.215000    0.903553   23.619387
13   15.650000    1.807106   19.256126
 7   15.650000    1.807106   21.140623
13   15.650000    3.614213   21.729788
 7   15.650000    3.614213   23.605090
13   17.215000    4.517766   19.260694
 7   17.215000    4.517766   21.132309
13   20.345000    0.903553    1.969672
 7   20.345000    0.903553    3.824892
13   18.780000    1.807106   -0.444461
 7   18.780000    1.807106    1.416500
13   18.780000    3.614213    2.080823
 7   18.780000    3.614213    3.928715
13   20.345000    4.517766   -0.322692
 7   20.345000    4.517766    1.540788
13   20.345000    0.903553    6.850471
 7   20.345000    0.903553    8.712522
13   18.780000    1.807106    4.439063
 7   18.780000    1.807106    6.287903
13   18.780000    3.614213    6.927287
 7   18.780000    3.614213    8.768359
13   20.345000    4.517766    4.554384
 7   20.345000    4.517766    6.385678
13   20.345000    0.903553   11.776498
 7   20.345000    0.903553   13.668645
13   18.780000    1.807106    9.317519
 7   18.780000    1.807106   11.192225
13   18.780000    3.614213   11.812005
 7   18.780000    3.614213   13.701091
13   20.345000    4.517766    9.374847
 7   20.345000    4.517766   11.233645
13   20.345000    0.903553   16.762196
 7   20.345000    0.903553   18.655006
13   18.780000    1.807106   14.277041
 7   18.780000    1.807106   16.172186
13   18.780000    3.614213   16.785641
 7   18.780000    3.614213   18.667915
13   20.345000    4.517766   14.311193
 7   20.345000    4.517766   16.198451
13   20.345000    0.903553   21.735049
 7   20.345000    0.903553   23.619387
13   18.780000    1.807106   19.256126
 7   18.780000    1.807106   21.140623
13   18.780000    3.614213   21.729788
 7   18.780000    3.614213   23.605090
13   20.345000    4.517766   19.260694
 7   20.345000    4.517766   21.132309
13   23.475000    0.903553    1.969672
 7   23.475000    0.903553    3.824892
13   21.910000    1.807106   -0.444461
 7   21.910000    1.807106    1.416500
13   21.910000    3.614213    2.080823
 7   21.910000    3.614213    3.928715
13   23.475000    4.517766   -0.322692
 7   23.475000    4.517766    1.540788
13   23.475000    0.903553    6.850471
 7   23.475000    0.903553    8.712522
13   21.910000    1.807106    4.439063
 7   21.910000    1.807106    6.287903
13   21.910000    3.614213    6.927287
 7   21.910000    3.614213    8.768359
13   23.475000    4.517766    4.554384
 7   23.475000    4.517766    6.385678
13   23.475000    0.903553   11.776498
 7   23.475000    0.903553   13.668645
13   21.910000    1.807106    9.317519
 7   21.910000    1.807106   11.192225
13   21.910000    3.614213   11.812005
 7   21.910000    3.614213   13.701091
13   23.475000    4.517766    9.374847
 7   23.475000    4.517766   11.233645
13   23.475000    0.903553   16.762196
 7   23.475000    0.903553   18.655006
13   21.910000    1.807106   14.277041
 7   21.910000    1.807106   16.172186
13   21.910000    3.614213   16.785641
 7   21.910000    3.614213   18.667915
13   23.475000    4.517766   14.311193
 7   23.475000    4.517766   16.198451
13   23.475000    0.903553   21.735049
 7   23.475000    0.903553   23.619387
13   21.910000    1.807106   19.256126
 7   21.910000    1.807106   21.140623
13   21.910000    3.614213   21.729788
 7   21.910000    3.614213   23.605090
13   23.475000    4.517766   19.260694
 7   23.475000    4.517766   21.132309
13    1.565000    6.324872    2.234149
 7    1.565000    6.324872    4.085082
13    0.000000    7.228425   -0.172739
 7    0.000000    7.228425    1.705251
13    0.000000    9.035532    2.430645
 7    0.000000    9.035532    4.310769
13    1.565000    9.939085   -0.005918
 7    1.565000    9.939085    1.900617
13    1.565000    6.324872    7.058805
 7    1.565000    6.324872    8.861799
13    0.000000    7.228425    4.734208
 7    0.000000    7.228425    6.556594
13    0.000000    9.035532    7.315295
 7    0.000000    9.035532    9.075706
13    1.565000    9.939085    4.994234
 7    1.565000    9.939085    6.863333
13    1.565000    6.324872   11.860744
 7    1.565000    6.324872   13.743988
13    0.000000    7.228425    9.475169
 7    0.000000    7.228425   11.294092
13    0.000000    9.035532   11.939479
 7    0.000000    9.035532   13.793975
13    1.565000    9.939085    9.751119
 7    1.565000    9.939085   11.407913
13    1.565000    6.324872   16.800787
 7    1.565000    6.324872   18.661576
13    0.000000    7.228425   14.352902
 7    0.000000    7.228425   16.213501
13    0.000000    9.035532   16.763666
 7    0.000000    9.035532   18.597733
13    1.565000    9.939085   14.355145
 7    1.565000    9.939085   16.147745
13    1.565000    6.324872   21.698838
 7    1.565000    6.324872   23.565741
13    0.000000    7.228425   19.234610
 7    0.000000    7.228425   21.091519
13    0.000000    9.035532   21.621458
 7    0.000000    9.035532   23.488224
13    1.565000    9.939085   19.136767
 7    1.565000    9.939085   20.993411
13    4.695000    6.324872    2.234149
 7    4.695000    6.324872    4.085082
13    3.130000    7.228425   -0.172739
 7    3.130000    7.228425    1.705251
13    3.130000    9.035532    2.430645
 7    3.130000    9.035532    4.310769
13    4.695000    9.939085   -0.005918
 7    4.695000    9.939085    1.900617
13    4.695000    6.324872    7.058805
 7    4.695000    6.324872    8.861799
13    3.130000    7.228425    4.734208
 7    3.130000    7.228425    6.556594
13    3.130000    9.035532    7.315295
 7    3.130000    9.035532    9.075706
13    4.695000    9.939085    4.994234
 7    4.695000    9.939085    6.863333
13    4.695000    6.324872   11.860744
 7    4.695000    6.324872   13.743988
13    3.130000    7.228425    9.475169
 7    3.130000    7.228425   11.294092
13    3.130000    9.035532   11.939479
 7    3.130000    9.035532   13.793975
13    4.695000    9.939085    9.751119
 7    4.695000    9.939085   11.407913
13    4.695000    6.324872   16.800787
 7    4.695000    6.324872   18.661576
13    3.130000    7.228425   14.352902
 7    3.130000    7.228425   16.213501
13    3.130000    9.035532   16.763666
 7    3.130000    9.035532   18.597733
13    4.695000    9.939085   14.355145
 7    4.695000    9.939085   16.147745
13    4.695000    6.324872   21.698838
 7    4.695000    6.324872   23.565741
13    3.130000    7.228425   19.234610
 7    3.130000    7.228425   21.091519
13    3.130000    9.035532   21.621458
 7    3.130000    9.035532   23.488224
13    4.695000    9.939085   19.136767
 7    4.695000    9.939085   20.993411
13    7.825000    6.324872    2.234149
 7    7.825000    6.324872    4.085082
13    6.260000    7.228425   -0.172739
 7    6.260000    7.228425    1.705251
13    6.260000    9.035532    2.430645
 7    6.260000    9.035532    4.310769
13    7.825000    9.939085   -0.005918
 7    7.825000    9.939085    1.900617
13    7.825000    6.324872    7.058805
 7    7.825000    6.324872    8.861799
13    6.260000    7.228425    4.734208
 7    6.260000    7.228425    6.556594
13    6.260000    9.035532    7.315295
 7    6.260000    9.035532    9.075706
13    7.825000    9.939085    4.994234
 7    7.825000    9.939085    6.863333
13    7.825000    6.324872   11.860744
 7    7.825000    6.324872   13.743988
13    6.260000    7.228425    9.475169
 7    6.260000    7.228425   11.294092
13    6.260000    9.035532   11.939479
 7    6.260000    9.035532   13.793975
13    7.825000    9.939085    9.751119
 7    7.825000    9.939085   11.407913
13    7.825000    6.324872   16.800787
 7    7.825000    6.324872   18.661576
13    6.260000    7.228425   14.352902
 7    6.260000    7.228425   16.213501
13    6.260000    9.035532   16.763666
 7    6.260000    9.035532   18.597733
13    7.825000    9.939085   14.355145
 7    7.825000    9.939085   16.147745
13    7.825000    6.324872   21.698838
 7    7.825000    6.324872   23.565741
13    6.260000    7.228425   19.234610
 7    6.260000    7.228425   21.091519
13    6.260000    9.035532   21.621458
 7    6.260000    9.035532   23.488224
13    7.825000    9.939085   19.136767
 7    7.825000    9.939085   20.993411
13   10.955000    6.324872    2.234149
 7   10.955000    6.324872    4.085082
13    9.390000    7.228425   -0.172739
 7    9.390000    7.228425    1.705251
13    9.390000    9.035532    2.430645
 7    9.390000    9.035532    4.310769
13   10.955000    9.939085   -0.005918
 7   10.955000    9.939085    1.900617
13   10.955000    6.324872    7.058805
 7   10.955000    6.324872    8.861799
13    9.390000    7.228425    4.734208
 7    9.390000    7.228425    6.556594
13    9.390000    9.035532    7.315295
 7    9.390000    9.035532    9.075706
13   10.955000    9.939085    4.994234
 7   10.955000    9.939085    6.863333
13   10.955000    6.324872   11.860744
 7   10.955000    6.324872   13.743988
13    9.390000    7.228425    9.475169
 7    9.390000    7.228425   11.294092
13    9.390000    9.035532   11.939479
 7    9.390000    9.035532   13.793975
13   10.955000    9.939085    9.751119
 7   10.955000    9.939085   11.407913
13   10.955000    6.324872   16.800787
 7   10.955000    6.324872   18.661576
13    9.390000    7.228425   14.352902
 7    9.390000    7.228425   16.213501
13    9.390000    9.035532   16.763666
 7    9.390000    9.035532   18.597733
13   10.955000    9.939085   14.355145
 7   10.955000    9.939085   16.147745
13   10.955000    6.324872   21.698838
 7   10.955000    6.324872   23.565741
13    9.390000    7.228425   19.234610
 7    9.390000    7.228425   21.091519
13    9.390000    9.035532   21.621458
 7    9.390000    9.035532   23.488224
13   10.955000    9.939085   19.136767
 7   10.955000    9.939085   20.993411
13   14.085000    6.324872    2.234149
 7   14.085000    6.324872    4.085082
13   12.520000    7.228425   -0.172739
 7   12.520000    7.228425    1.705251
13   12.520000    9.035532    2.430645
 7   12.520000    9.035532    4.310769
13   14.085000    9.939085   -0.005918
 7   14.085000    9.939085    1.900617
13   14.085000    6.324872    7.058805
 7   14.085000    6.324872    8.861799
13   12.520000    7.228425    4.734208
 7   12.520000    7.228425    6.556594
13   12.520000    9.035532    7.315295
 7   12.520000    9.035532    9.075706
13   14.085000    9.939085    4.994234
 7   14.085000    9.939085    6.863333
13   14.085000    6.324872   11.860744
 7   14.085000    6.324872   13.743988
13   12.520000    7.228425    9.475169
 7   12.520000    7.228425   11.294092
13   12.520000    9.035532   11.939479
 7   12.520000    9.035532   13.793975
13   14.085000    9.939085    9.751119
 7   14.085000    9.939085   11.407913
13   14.085000    6.324872   16.800787
 7   14.085000    6.324872   18.661576
13   12.520000    7.228425   14.352902
 7   12.520000    7.228425   16.213501
13   12.520000    9.035532   16.763666
 7   12.520000    9.035532   18.597733
13   14.085000    9.939085   14.355145
 7   14.085000    9.939085   16.147745
13   14.085000    6.324872   21.698838
 7   14.085000    6.324872   23.565741
13   12.520000    7.228425   19.234610
 7   12.520000    7.228425   21.091519
13   12.520000    9.035532   21.621458
 7   12.520000    9.035532   23.488224
13   14.085000    9.939085   19.136767
 7   14.085000    9.939085   20.993411
13   17.215000    6.324872    2.234149
 7   17.215000    6.324872    4.085082
13   15.650000    7.228425   -0.172739
 7   15.650000    7.228425    1.705251
13   15.650000    9.035532    2.430645
 7   15.650000    9.035532    4.310769
13   17.215000    9.939085   -0.005918
 7   17.215000    9.939085    1.900617
13   17.215000    6.324872    7.058805
 7   17.215000    6.324872    8.861799
13   15.650000    7.228425    4.734208
 7   15.650000    7.228425    6.556594
13   15.650000    9.035532    7.315295
 7   15.650000    9.035532    9.075706
13   17.215000    9.939085    4.994234
 7   17.215000    9.939085    6.863333
13   17.215000    6.324872   11.860744
 7   17.215000    6.324872   13.743988
13   15.650000    7.228425    9.475169
 7   15.650000    7.228425   11.294092
13   15.650000    9.035532   11.939479
 7   15.650000    9.035532   13.793975
13   17.215000    9.939085    9.751119
 7   17.215000    9.939085   11.407913
13   17.215000    6.324872   16.800787
 7   17.215000    6.324872   18.661576
13   15.650000    7.228425   14.352902
 7   15.650000    7.228425   16.213501
13   15.650000    9.035532   16.763666
 7   15.650000    9.035532   18.597733
13   17.215000    9.939085   14.355145
 7   17.215000    9.939085   16.147745
13   17.215000    6.324872   21.698838
 7   17.215000    6.324872   23.565741
13   15.650000    7.228425   19.234610
 7   15.650000    7.228425   21.091519
13   15.650000    9.035532   21.621458
 7   15.650000    9.035532   23.488224
13   17.215000    9.939085   19.136767
 7   17.215000    9.939085   20.993411
13   20.345000    6.324872    2.234149
 7   20.345000    6.324872    4.085082
13   18.780000    7.228425   -0.172739
 7   18.780000    7.228425    1.705251
13   18.780000    9.035532    2.430645
 7   18.780000    9.035532    4.310769
13   20.345000    9.939085   -0.005918
 7   20.345000    9.939085    1.900617
13   20.345000    6.324872    7.058805
 7   20.345000    6.324872    8.861799
13   18.780000    7.228425    4.734208
 7   18.780000    7.228425    6.556594
13   18.780000    9.035532    7.315295
 7   18.780000    9.035532    9.075706
13   20.345000    9.939085    4.994234
 7   20.345000    9.939085    6.863333
13   20.345000    6.324872   11.860744
 7   20.345000    6.324872   13.743988
13   18.780000    7.228425    9.475169
 7   18.780000    7.228425   11.294092
13   18.780000    9.035532   11.939479
 7   18.780000    9.035532   13.793975
13   20.345000    9.939085    9.751119
 7   20.345000    9.939085   11.407913
13   20.345000    6.324872   16.800787
 7   20.345000    6.324872   18.661576
13   18.780000    7.228425   14.352902
 7   18.780000    7.228425   16.213501
13   18.780000    9.035532   16.763666
 7   18.780000    9.035532   18.597733
13   20.345000    9.939085   14.355145
 7   20.345000    9.939085   16.147745
13   20.345000    6.324872   21.698838
 7   20.345000    6.324872   23.565741
13   18.780000    7.228425   19.234610
 7   18.780000    7.228425   21.091519
13   18.780000    9.035532   21.621458
 7   18.780000    9.035532   23.488224
13   20.345000    9.939085   19.136767
 7   20.345000    9.939085   20.993411
13   23.475000    6.324872    2.234149
 7   23.475000    6.324872    4.085082
13   21.910000    7.228425   -0.172739
 7   21.910000    7.228425    1.705251
13   21.910000    9.035532    2.430645
 7   21.910000    9.035532    4.310769
13   23.475000    9.939085   -0.005918
 7   23.475000    9.939085    1.900617
13   23.475000    6.324872    7.058805
 7   23.475000    6.324872    8.861799
13   21.910000    7.228425    4.734208
 7   21.910000    7.228425    6.556594
13   21.910000    9.035532    7.315295
 7   21.910000    9.035532    9.075706
13   23.475000    9.939085    4.994234
 7   23.475000    9.939085    6.863333
13   23.475000    6.324872   11.860744
 7   23.475000    6.324872   13.743988
13   21.910000    7.228425    9.475169
 7   21.910000    7.228425   11.294092
13   21.910000    9.035532   11.939479
 7   21.910000    9.035532   13.793975
13   23.475000    9.939085    9.751119
 7   23.475000    9.939085   11.407913
13   23.475000    6.324872   16.800787
 7   23.475000    6.324872   18.661576
13   21.910000    7.228425   14.352902
 7   21.910000    7.228425   16.213501
13   21.910000    9.035532   16.763666
 7   21.910000    9.035532   18.597733
13   23.475000    9.939085   14.355145
 7   23.475000    9.939085   16.147745
13   23.475000    6.324872   21.698838
 7   23.475000    6.324872   23.565741
13   21.910000    7.228425   19.234610
 7   21.910000    7.228425   21.091519
13   21.910000    9.035532   21.621458
 7   21.910000    9.035532   23.488224
13   23.475000    9.939085   19.136767
 7   23.475000    9.939085   20.993411
13    1.565000   11.746191    2.639232
 7    1.565000   11.746191    4.572107
13    0.000000   12.649744    0.151034
 7    0.000000   12.649744    2.088056
13    0.000000   14.456851    2.802036
 7    0.000000   14.456851    4.766069
13    1.565000   15.360404    0.269857
 7    1.565000   15.360404    2.221319
13    1.565000   11.746191    7.738716
 7    1.565000   11.746191    9.690413
13    0.000000   12.649744    5.266969
 7    0.000000   12.649744    7.237357
13    0.000000   14.456851    8.011334
 7    0.000000   14.456851   10.026637
13    1.565000   15.360404    5.427512
 7    1.565000   15.360404    7.409178
 7    1.565000   11.746191   13.594582
13    0.000000   12.649744   10.571408
13    0.000000   14.456851   13.279054
13    1.565000   15.360404   10.639770
 7    1.565000   15.360404   12.592264
13    1.565000   11.746191   16.562833
 7    1.565000   11.746191   18.423804
13    0.000000   12.649744   13.950865
 7    0.000000   12.649744   15.854251
13    0.000000   14.456851   16.213723
 7    0.000000   14.456851   18.163039
 7    1.565000   15.360404   15.476178
13    1.565000   11.746191   21.483425
 7    1.565000   11.746191   23.366591
13    0.000000   12.649744   18.938214
 7    0.000000   12.649744   20.828456
13    0.000000   14.456851   21.300876
 7    0.000000   14.456851   23.212827
13    1.565000   15.360404   18.691920
 7    1.565000   15.360404   20.628693
13    4.695000   11.746191    2.639232
 7    4.695000   11.746191    4.572107
13    3.130000   12.649744    0.151034
 7    3.130000   12.649744    2.088056
13    3.130000   14.456851    2.802036
 7    3.130000   14.456851    4.766069
13    4.695000   15.360404    0.269857
 7    4.695000   15.360404    2.221319
13    4.695000   11.746191    7.738716
 7    4.695000   11.746191    9.690413
13    3.130000   12.649744    5.266969
 7    3.130000   12.649744    7.237357
13    3.130000   14.456851    8.011334
 7    3.130000   14.456851   10.026637
13    4.695000   15.360404    5.427512
 7    4.695000   15.360404    7.409178
 7    4.695000   11.746191   13.594582
13    3.130000   12.649744   10.571408
13    3.130000   14.456851   13.279054
13    4.695000   15.360404   10.639770
 7    4.695000   15.360404   12.592264
13    4.695000   11.746191   16.562833
 7    4.695000   11.746191   18.423804
13    3.130000   12.649744   13.950865
 7    3.130000   12.649744   15.854251
13    3.130000   14.456851   16.213723
 7    3.130000   14.456851   18.163039
 7    4.695000   15.360404   15.476178
13    4.695000   11.746191   21.483425
 7    4.695000   11.746191   23.366591
13    3.130000   12.649744   18.938214
 7    3.130000   12.649744   20.828456
13    3.130000   14.456851   21.300876
 7    3.130000   14.456851   23.212827
13    4.695000   15.360404   18.691920
 7    4.695000   15.360404   20.628693
13    7.825000   11.746191    2.639232
 7    7.825000   11.746191    4.572107
13    6.260000   12.649744    0.151034
 7    6.260000   12.649744    2.088056
13    6.260000   14.456851    2.802036
 7    6.260000   14.456851    4.766069
13    7.825000   15.360404    0.269857
 7    7.825000   15.360404    2.221319
13    7.825000   11.746191    7.738716
 7    7.825000   11.746191    9.690413
13    6.260000   12.649744    5.266969
 7    6.260000   12.649744    7.237357
13    6.260000   14.456851    8.011334
 7    6.260000   14.456851   10.026637
13    7.825000   15.360404    5.427512
 7    7.825000   15.360404    7.409178
 7    7.825000   11.746191   13.594582
13    6.260000   12.649744   10.571408
13    6.260000   14.456851   13.279054
13    7.825000   15.360404   10.639770
 7    7.825000   15.360404   12.592264
13    7.825000   11.746191   16.562833
 7    7.825000   11.746191   18.423804
13    6.260000   12.649744   13.950865
 7    6.260000   12.649744   15.854251
13    6.260000   14.456851   16.213723
 7    6.260000   14.456851   18.163039
 7    7.825000   15.360404   15.476178
13    7.825000   11.746191   21.483425
 7    7.825000   11.746191   23.366591
13    6.260000   12.649744   18.938214
 7    6.260000   12.649744   20.828456
13    6.260000   14.456851   21.300876
 7    6.260000   14.456851   23.212827
13    7.825000   15.360404   18.691920
 7    7.825000   15.360404   20.628693
13   10.955000   11.746191    2.639232
 7   10.955000   11.746191    4.572107
13    9.390000   12.649744    0.151034
 7    9.390000   12.649744    2.088056
13    9.390000   14.456851    2.802036
 7    9.390000   14.456851    4.766069
13   10.955000   15.360404    0.269857
 7   10.955000   15.360404    2.221319
13   10.955000   11.746191    7.738716
 7   10.955000   11.746191    9.690413
13    9.390000   12.649744    5.266969
 7    9.390000   12.649744    7.237357
13    9.390000   14.456851    8.011334
 7    9.390000   14.456851   10.026637