CRYSTAL
PRIMVEC
  25.0400000   0.0000000   0.0000000
   0.0000000  27.1065951   0.0000000
   0.0000000   0.0000000  25.1000000
CONVVEC
  25.0400000   0.0000000   0.0000000
   0.0000000  27.1065951   0.0000000
   0.0000000   0.0000000  25.1000000

PRIMCOORD
1672 1
13    1.565000    0.525883    1.669188
 7    1.565000    0.509187    3.526120
13    0.000000    1.461594   -0.777388
 7    0.000000    1.451138    1.097524
13    0.000000    3.292538    1.725542
 7    0.000000    3.277897    3.588756
13    1.565000    4.223616   -0.730654
 7    1.565000    4.219466    1.152662
13    1.565000    0.477099    6.520282
 7    1.565000    0.459952    8.331644
13    0.000000    1.424207    4.129018
 7    0.000000    1.402922    5.963288
13    0.000000    3.240161    6.581187
 7    0.000000    3.214683    8.375496
13    1.565000    4.198856    4.197722
 7    1.565000    4.175298    6.034288
13    1.565000    0.450418   13.772048
 7    1.565000    0.459193   15.569305
13    0.000000    1.371870    8.910275
 7    0.000000    1.364796   10.696023
13    0.000000    3.198739   13.761444
 7    0.000000    3.213462   15.526839
13    1.565000    4.129301    8.952629
 7    1.565000    4.116628   10.697263
13    1.565000    0.488565   18.532378
 7    1.565000    0.508171   20.372299
13    0.000000    1.381064   16.125151
 7    0.000000    1.401718   17.936561
13    0.000000    3.255079   18.468041
 7    0.000000    3.276892   20.309406
13    1.565000    4.144482   16.066607
 7    1.565000    4.173781   17.865746
13    1.565000    0.533760   23.407563
 7    1.565000    0.544312   25.282931
13    0.000000    1.435099   20.937592
 7    0.000000    1.450433   22.799782
13    0.000000    3.298083   23.355440
 7    0.000000    3.303644   25.237968
13    1.565000    4.208529   20.873146
 7    1.565000    4.219084   22.744156
13    4.695000    0.525883    1.669188
 7    4.695000    0.509187    3.526120
13    3.130000    1.461594   -0.777388
 7    3.130000    1.451138    1.097524
13    3.130000    3.292538    1.725542
 7    3.130000    3.277897    3.588756
13    4.695000    4.223616   -0.730654
 7    4.695000    4.219466    1.152662
13    4.695000    0.477099    6.520282
 7    4.695000    0.459952    8.331644
13    3.130000    1.424207    4.129018
 7    3.130000    1.402922    5.963288
13    3.130000    3.240161    6.581187
 7    3.130000    3.214683    8.375496
13    4.695000    4.198856    4.197722
 7    4.695000    4.175298    6.034288
13    4.695000    0.450418   13.772048
 7    4.695000    0.459193   15.569305
13    3.130000    1.371870    8.910275
 7    3.130000    1.364796   10.696023
13    3.130000    3.198739   13.761444
 7    3.130000    3.213462   15.526839
13    4.695000    4.129301    8.952629
 7    4.695000    4.116628   10.697263
13    4.695000    0.488565   18.532378
 7    4.695000    0.508171   20.372299
13    3.130000    1.381064   16.125151
 7    3.130000    1.401718   17.936561
13    3.130000    3.255079   18.468041
 7    3.130000    3.276892   20.309406
13    4.695000    4.144482   16.066607
 7    4.695000    4.173781   17.865746
13    4.695000    0.533760   23.407563
 7    4.695000    0.544312   25.282931
13    3.130000    1.435099   20.937592
 7    3.130000    1.450433   22.799782
13    3.130000    3.298083   23.355440
 7    3.130000    3.303644   25.237968
13    4.695000    4.208529   20.873146
 7    4.695000    4.219084   22.744156
13    7.825000    0.525883    1.669188
 7    7.825000    0.509187    3.526120
13    6.260000    1.461594   -0.777388
 7    6.260000    1.451138    1.097524
13    6.260000    3.292538    1.725542
 7    6.260000    3.277897    3.588756
13    7.825000    4.223616   -0.730654
 7    7.825000    4.219466    1.152662
13    7.825000    0.477099    6.520282
 7    7.825000    0.459952    8.331644
13    6.260000    1.424207    4.129018
 7    6.260000    1.402922    5.963288
13    6.260000    3.240161    6.581187
 7    6.260000    3.214683    8.375496
13    7.825000    4.198856    4.197722
 7    7.825000    4.175298    6.034288
13    7.825000    0.450418   13.772048
 7    7.825000    0.459193   15.569305
13    6.260000    1.371870    8.910275
 7    6.260000    1.364796   10.696023
13    6.260000    3.198739   13.761444
 7    6.260000    3.213462   15.526839
13    7.825000    4.129301    8.952629
 7    7.825000    4.116628   10.697263
13    7.825000    0.488565   18.532378
 7    7.825000    0.508171   20.372299
13    6.260000    1.381064   16.125151
 7    6.260000    1.401718   17.936561
13    6.260000    3.255079   18.468041
 7    6.260000    3.276892   20.309406
13    7.825000    4.144482   16.066607
 7    7.825000    4.173781   17.865746
13    7.825000    0.533760   23.407563
 7    7.825000    0.544312   25.282931
13    6.260000    1.435099   20.937592
 7    6.260000    1.450433   22.799782
13    6.260000    3.298083   23.355440
 7    6.260000    3.303644   25.237968
13    7.825000    4.208529   20.873146
 7    7.825000    4.219084   22.744156
13   10.955000    0.525883    1.669188
 7   10.955000    0.509187    3.526120
13    9.390000    1.461594   -0.777388
 7    9.390000    1.451138    1.097524
13    9.390000    3.292538    1.725542
 7    9.390000    3.277897    3.588756
13   10.955000    4.223616   -0.730654
 7   10.955000    4.219466    1.152662
13   10.955000    0.477099    6.520282
 7   10.955000    0.459952    8.331644
13    9.390000    1.424207    4.129018
 7    9.390000    1.402922    5.963288
13    9.390000    3.240161    6.581187
 7    9.390000    3.214683    8.375496
13   10.955000    4.198856    4.197722
 7   10.955000    4.175298    6.034288
13   10.955000    0.450418   13.772048
 7   10.955000    0.459193   15.569305
13    9.390000    1.371870    8.910275
 7    9.390000    1.364796   10.696023
13    9.390000    3.198739   13.761444
 7    9.390000    3.213462   15.526839
13   10.955000    4.129301    8.952629
 7   10.955000    4.116628   10.697263
13   10.955000    0.488565   18.532378
 7   10.955000    0.508171   20.372299
13    9.390000    1.381064   16.125151
 7    9.390000    1.401718   17.936561
13    9.390000    3.255079   18.468041
 7    9.390000    3.276892   20.309406
13   10.955000    4.144482   16.066607
 7   10.955000    4.173781   17.865746
13   10.955000    0.533760   23.407563
 7   10.955000    0.544312   25.282931
13    9.390000    1.435099   20.937592
 7    9.390000    1.450433   22.799782
13    9.390000    3.298083   23.355440
 7    9.390000    3.303644   25.237968
13   10.955000    4.208529   20.873146
 7   10.955000    4.219084   22.744156
13   14.085000    0.525883    1.669188
 7   14.085000    0.509187    3.526120
13   12.520000    1.461594   -0.777388
 7   12.520000    1.451138    1.097524
13   12.520000    3.292538    1.725542
 7   12.520000    3.277897    3.588756
13   14.085000    4.223616   -0.730654
 7   14.085000    4.219466    1.152662
13   14.085000    0.477099    6.520282
 7   14.085000    0.459952    8.331644
13   12.520000    1.424207    4.129018
 7   12.520000    1.402922    5.963288
13   12.520000    3.240161    6.581187
 7   12.520000    3.214683    8.375496
13   14.085000    4.198856    4.197722
 7   14.085000    4.175298    6.034288
13   14.085000    0.450418   13.772048
 7   14.085000    0.459193   15.569305
13   12.520000    1.371870    8.910275
 7   12.520000    1.364796   10.696023
13   12.520000    3.198739   13.761444
 7   12.520000    3.213462   15.526839
13   14.085000    4.129301    8.952629
 7   14.085000    4.116628   10.697263
13   14.085000    0.488565   18.532378
 7   14.085000    0.508171   20.372299
13   12.520000    1.381064   16.125151
 7   12.520000    1.401718   17.936561
13   12.520000    3.255079   18.468041
 7   12.520000    3.276892   20.309406
13   14.085000    4.144482   16.066607
 7   14.085000    4.173781   17.865746
13   14.085000    0.533760   23.407563
 7   14.085000    0.544312   25.282931
13   12.520000    1.435099   20.937592
 7   12.520000    1.450433   22.799782
13   12.520000    3.298083   23.355440
 7   12.520000    3.303644   25.237968
13   14.085000    4.208529   20.873146
 7   14.085000    4.219084   22.744156
13   17.215000    0.525883    1.669188
 7   17.215000    0.509187    3.526120
13   15.650000    1.461594   -0.777388
 7   15.650000    1.451138    1.097524
13   15.650000    3.292538    1.725542
 7   15.650000    3.277897    3.588756
13   17.215000    4.223616   -0.730654
 7   17.215000    4.219466    1.152662
13   17.215000    0.477099    6.520282
 7   17.215000    0.459952    8.331644
13   15.650000    1.424207    4.129018
 7   15.650000    1.402922    5.963288
13   15.650000    3.240161    6.581187
 7   15.650000    3.214683    8.375496
13   17.215000    4.198856    4.197722
 7   17.215000    4.175298    6.034288
13   17.215000    0.450418   13.772048
 7   17.215000    0.459193   15.569305
13   15.650000    1.371870    8.910275
 7   15.650000    1.364796   10.696023
13   15.650000    3.198739   13.761444
 7   15.650000    3.213462   15.526839
13   17.215000    4.129301    8.952629
 7   17.215000    4.116628   10.697263
13   17.215000    0.488565   18.532378
 7   17.215000    0.508171   20.372299
13   15.650000    1.381064   16.125151
 7   15.650000    1.401718   17.936561
13   15.650000    3.255079   18.468041
 7   15.650000    3.276892   20.309406
13   17.215000    4.144482   16.066607
 7   17.215000    4.173781   17.865746
13   17.215000    0.533760   23.407563
 7   17.215000    0.544312   25.282931
13   15.650000    1.435099   20.937592
 7   15.650000    1.450433   22.799782
13   15.650000    3.298083   23.355440
 7   15.650000    3.303644   25.237968
13   17.215000    4.208529   20.873146
 7   17.215000    4.219084   22.744156
13   20.345000    0.525883    1.669188
 7   20.345000    0.509187    3.526120
13   18.780000    1.461594   -0.777388
 7   18.780000    1.451138    1.097524
13   18.780000    3.292538    1.725542
 7   18.780000    3.277897    3.588756
13   20.345000    4.223616   -0.730654
 7   20.345000    4.219466    1.152662
13   20.345000    0.477099    6.520282
 7   20.345000    0.459952    8.331644
13   18.780000    1.424207    4.129018
 7   18.780000    1.402922    5.963288
13   18.780000    3.240161    6.581187
 7   18.780000    3.214683    8.375496
13   20.345000    4.198856    4.197722
 7   20.345000    4.175298    6.034288
13   20.345000    0.450418   13.772048
 7   20.345000    0.459193   15.569305
13   18.780000    1.371870    8.910275
 7   18.780000    1.364796   10.696023
13   18.780000    3.198739   13.761444
 7   18.780000    3.213462   15.526839
13   20.345000    4.129301    8.952629
 7   20.345000    4.116628   10.697263
13   20.345000    0.488565   18.532378
 7   20.345000    0.508171   20.372299
13   18.780000    1.381064   16.125151
 7   18.780000    1.401718   17.936561
13   18.780000    3.255079   18.468041
 7   18.780000    3.276892   20.309406
13   20.345000    4.144482   16.066607
 7   20.345000    4.173781   17.865746
13   20.345000    0.533760   23.407563
 7   20.345000    0.544312   25.282931
13   18.780000    1.435099   20.937592
 7   18.780000    1.450433   22.799782
13   18.780000    3.298083   23.355440
 7   18.780000    3.303644   25.237968
13   20.345000    4.208529   20.873146
 7   20.345000    4.219084   22.744156
13   23.475000    0.525883    1.669188
 7   23.475000    0.509187    3.526120
13   21.910000    1.461594   -0.777388
 7   21.910000    1.451138    1.097524
13   21.910000    3.292538    1.725542
 7   21.910000    3.277897    3.588756
13   23.475000    4.223616   -0.730654
 7   23.475000    4.219466    1.152662
13   23.475000    0.477099    6.520282
 7   23.475000    0.459952    8.331644
13   21.910000    1.424207    4.129018
 7   21.910000    1.402922    5.963288
13   21.910000    3.240161    6.581187
 7   21.910000    3.214683    8.375496
13   23.475000    4.198856    4.197722
 7   23.475000    4.175298    6.034288
13   23.475000    0.450418   13.772048
 7   23.475000    0.459193   15.569305
13   21.910000    1.371870    8.910275
 7   21.910000    1.364796   10.696023
13   21.910000    3.198739   13.761444
 7   21.910000    3.213462   15.526839
13   23.475000    4.129301    8.952629
 7   23.475000    4.116628   10.697263
13   23.475000    0.488565   18.532378
 7   23.475000    0.508171   20.372299
13   21.910000    1.381064   16.125151
 7   21.910000    1.401718   17.936561
13   21.910000    3.255079   18.468041
 7   21.910000    3.276892   20.309406
13   23.475000    4.144482   16.066607
 7   23.475000    4.173781   17.865746
13   23.475000    0.533760   23.407563
 7   23.475000    0.544312   25.282931
13   21.910000    1.435099   20.937592
 7   21.910000    1.450433   22.799782
13   21.910000    3.298083   23.355440
 7   21.910000    3.303644   25.237968
13   23.475000    4.208529   20.873146
 7   23.475000    4.219084   22.744156
13    1.565000    6.067883    1.784508
 7    1.565000    6.063035    3.661188
13    0.000000    6.984563   -0.687249
 7    0.000000    6.991663    1.206583
13    0.000000    8.839174    1.837344
 7    0.000000    8.854151    3.731533
13    1.565000    9.731790   -0.651017
 7    1.565000    9.751028    1.251838
13    1.565000    6.030363    6.670972
 7    1.565000    5.993281    8.451908
13    0.000000    6.992502    4.277032
 7    0.000000    6.978126    6.131465
13    0.000000    8.863677    6.791236
 7    0.000000    8.834405    8.599097
13    1.565000    9.786588    4.350137
 7    1.565000    9.808111    6.238805
13    1.565000    5.962391   13.740835
 7    1.565000    5.991148   15.452229
13    0.000000    6.915248    9.034300
 7    0.000000    6.887204   10.699911
13    0.000000    8.764277   13.683951
 7    0.000000    8.831318   15.305234
13    1.565000    9.793220    9.221718
 7    1.565000    9.709760   10.709522
13    1.565000    6.046289   18.381848
 7    1.565000    6.062504   20.236193
13    0.000000    6.941854   15.966185
 7    0.000000    6.976814   17.767759
13    0.000000    8.864613   18.282428
 7    0.000000    8.854895   20.164638
13    1.565000    9.815307   15.800885
 7    1.565000    9.809117   17.657936
13    1.565000    6.067560   23.303146
 7    1.565000    6.063722   25.195120
13    0.000000    6.994582   20.803989
 7    0.000000    6.991961   22.689554
13    0.000000    8.830071   23.257402
 7    0.000000    8.814561   25.158331
13    1.565000    9.773558   20.743486
 7    1.565000    9.752146   22.643681
13    4.695000    6.067883    1.784508
 7    4.695000    6.063035    3.661188
13    3.130000    6.984563   -0.687249
 7    3.130000    6.991663    1.206583
13    3.130000    8.839174    1.837344
 7    3.130000    8.854151    3.731533
13    4.695000    9.731790   -0.651017
 7    4.695000    9.751028    1.251838
13    4.695000    6.030363    6.670972
 7    4.695000    5.993281    8.451908
13    3.130000    6.992502    4.277032
 7    3.130000    6.978126    6.131465
13    3.130000    8.863677    6.791236
 7    3.130000    8.834405    8.599097
13    4.695000    9.786588    4.350137
 7    4.695000    9.808111    6.238805
13    4.695000    5.962391   13.740835
 7    4.695000    5.991148   15.452229
13    3.130000    6.915248    9.034300
 7    3.130000    6.887204   10.699911
13    3.130000    8.764277   13.683951
 7    3.130000    8.831318   15.305234
13    4.695000    9.793220    9.221718
 7    4.695000    9.709760   10.709522
13    4.695000    6.046289   18.381848
 7    4.695000    6.062504   20.236193
13    3.130000    6.941854   15.966185
 7    3.130000    6.976814   17.767759
13    3.130000    8.864613   18.282428
 7    3.130000    8.854895   20.164638
13    4.695000    9.815307   15.800885
 7    4.695000    9.809117   17.657936
13    4.695000    6.067560   23.303146
 7    4.695000    6.063722   25.195120
13    3.130000    6.994582   20.803989
 7    3.130000    6.991961   22.689554
13    3.130000    8.830071   23.257402
 7    3.130000    8.814561   25.158331
13    4.695000    9.773558   20.743486
 7    4.695000    9.752146   22.643681
13    7.825000    6.067883    1.784508
 7    7.825000    6.063035    3.661188
13    6.260000    6.984563   -0.687249
 7    6.260000    6.991663    1.206583
13    6.260000    8.839174    1.837344
 7    6.260000    8.854151    3.731533
13    7.825000    9.731790   -0.651017
 7    7.825000    9.751028    1.251838
13    7.825000    6.030363    6.670972
 7    7.825000    5.993281    8.451908
13    6.260000    6.992502    4.277032
 7    6.260000    6.978126    6.131465
13    6.260000    8.863677    6.791236
 7    6.260000    8.834405    8.599097
13    7.825000    9.786588    4.350137
 7    7.825000    9.808111    6.238805
13    7.825000    5.962391   13.740835
 7    7.825000    5.991148   15.452229
13    6.260000    6.915248    9.034300
 7    6.260000    6.887204   10.699911
13    6.260000    8.764277   13.683951
 7    6.260000    8.831318   15.305234
13    7.825000    9.793220    9.221718
 7    7.825000    9.709760   10.709522
13    7.825000    6.046289   18.381848
 7    7.825000    6.062504   20.236193
13    6.260000    6.941854   15.966185
 7    6.260000    6.976814   17.767759
13    6.260000    8.864613   18.282428
 7    6.260000    8.854895   20.164638
13    7.825000    9.815307   15.800885
 7    7.825000    9.809117   17.657936
13    7.825000    6.067560   23.303146
 7    7.825000    6.063722   25.195120
13    6.260000    6.994582   20.803989
 7    6.260000    6.991961   22.689554
13    6.260000    8.830071   23.257402
 7    6.260000    8.814561   25.158331
13    7.825000    9.773558   20.743486
 7    7.825000    9.752146   22.643681
13   10.955000    6.067883    1.784508
 7   10.955000    6.063035    3.661188
13    9.390000    6.984563   -0.687249
 7    9.390000    6.991663    1.206583
13    9.390000    8.839174    1.837344
 7    9.390000    8.854151    3.731533
13   10.955000    9.731790   -0.651017
 7   10.955000    9.751028    1.251838
13   10.955000    6.030363    6.670972
 7   10.955000    5.993281    8.451908
13    9.390000    6.992502    4.277032
 7    9.390000    6.978126    6.131465
13    9.390000    8.863677    6.791236
 7    9.390000    8.834405    8.599097
13   10.955000    9.786588    4.350137
 7   10.955000    9.808111    6.238805
13   10.955000    5.962391   13.740835
 7   10.955000    5.991148   15.452229
13    9.390000    6.915248    9.034300
 7    9.390000    6.887204   10.699911
13    9.390000    8.764277   13.683951
 7    9.390000    8.831318   15.305234
13   10.955000    9.793220    9.221718
 7   10.955000    9.709760   10.709522
13   10.955000    6.046289   18.381848
 7   10.955000    6.062504   20.236193
13    9.390000    6.941854   15.966185
 7    9.390000    6.976814   17.767759
13    9.390000    8.864613   18.282428
 7    9.390000    8.854895   20.164638
13   10.955000    9.815307   15.800885
 7   10.955000    9.809117   17.657936
13   10.955000    6.067560   23.303146
 7   10.955000    6.063722   25.195120
13    9.390000    6.994582   20.803989
 7    9.390000    6.991961   22.689554
13    9.390000    8.830071   23.257402
 7    9.390000    8.814561   25.158331
13   10.955000    9.773558   20.743486
 7   10.955000    9.752146   22.643681
13   14.085000    6.067883    1.784508
 7   14.085000    6.063035    3.661188
13   12.520000    6.984563   -0.687249
 7   12.520000    6.991663    1.206583
13   12.520000    8.839174    1.837344
 7   12.520000    8.854151    3.731533
13   14.085000    9.731790   -0.651017
 7   14.085000    9.751028    1.251838
13   14.085000    6.030363    6.670972
 7   14.085000    5.993281    8.451908
13   12.520000    6.992502    4.277032
 7   12.520000    6.978126    6.131465
13   12.520000    8.863677    6.791236
 7   12.520000    8.834405    8.599097
13   14.085000    9.786588    4.350137
 7   14.085000    9.808111    6.238805
13   14.085000    5.962391   13.740835
 7   14.085000    5.991148   15.452229
13   12.520000    6.915248    9.034300
 7   12.520000    6.887204   10.699911
13   12.520000    8.764277   13.683951
 7   12.520000    8.831318   15.305234
13   14.085000    9.793220    9.221718
 7   14.085000    9.709760   10.709522
13   14.085000    6.046289   18.381848
 7   14.085000    6.062504   20.236193
13   12.520000    6.941854   15.966185
 7   12.520000    6.976814   17.767759
13   12.520000    8.864613   18.282428
 7   12.520000    8.854895   20.164638
13   14.085000    9.815307   15.800885
 7   14.085000    9.809117   17.657936
13   14.085000    6.067560   23.303146
 7   14.085000    6.063722   25.195120
13   12.520000    6.994582   20.803989
 7   12.520000    6.991961   22.689554
13   12.520000    8.830071   23.257402
 7   12.520000    8.814561   25.158331
13   14.085000    9.773558   20.743486
 7   14.085000    9.752146   22.643681
13   17.215000    6.067883    1.784508
 7   17.215000    6.063035    3.661188
13   15.650000    6.984563   -0.687249
 7   15.650000    6.991663    1.206583
13   15.650000    8.839174    1.837344
 7   15.650000    8.854151    3.731533
13   17.215000    9.731790   -0.651017
 7   17.215000    9.751028    1.251838
13   17.215000    6.030363    6.670972
 7   17.215000    5.993281    8.451908
13   15.650000    6.992502    4.277032
 7   15.650000    6.978126    6.131465
13   15.650000    8.863677    6.791236
 7   15.650000    8.834405    8.599097
13   17.215000    9.786588    4.350137
 7   17.215000    9.808111    6.238805
13   17.215000    5.962391   13.740835
 7   17.215000    5.991148   15.452229
13   15.650000    6.915248    9.034300
 7   15.650000    6.887204   10.699911
13   15.650000    8.764277   13.683951
 7   15.650000    8.831318   15.305234
13   17.215000    9.793220    9.221718
 7   17.215000    9.709760   10.709522
13   17.215000    6.046289   18.381848
 7   17.215000    6.062504   20.236193
13   15.650000    6.941854   15.966185
 7   15.650000    6.976814   17.767759
13   15.650000    8.864613   18.282428
 7   15.650000    8.854895   20.164638
13   17.215000    9.815307   15.800885
 7   17.215000    9.809117   17.657936
13   17.215000    6.067560   23.303146
 7   17.215000    6.063722   25.195120
13   15.650000    6.994582   20.803989
 7   15.650000    6.991961   22.689554
13   15.650000    8.830071   23.257402
 7   15.650000    8.814561   25.158331
13   17.215000    9.773558   20.743486
 7   17.215000    9.752146   22.643681
13   20.345000    6.067883    1.784508
 7   20.345000    6.063035    3.661188
13   18.780000    6.984563   -0.687249
 7   18.780000    6.991663    1.206583
13   18.780000    8.839174    1.837344
 7   18.780000    8.854151    3.731533
13   20.345000    9.731790   -0.651017
 7   20.345000    9.751028    1.251838
13   20.345000    6.030363    6.670972
 7   20.345000    5.993281    8.451908
13   18.780000    6.992502    4.277032
 7   18.780000    6.978126    6.131465
13   18.780000    8.863677    6.791236
 7   18.780000    8.834405    8.599097
13   20.345000    9.786588    4.350137
 7   20.345000    9.808111    6.238805
13   20.345000    5.962391   13.740835
 7   20.345000    5.991148   15.452229
13   18.780000    6.915248    9.034300
 7   18.780000    6.887204   10.699911
13   18.780000    8.764277   13.683951
 7   18.780000    8.831318   15.305234
13   20.345000    9.793220    9.221718
 7   20.345000    9.709760   10.709522
13   20.345000    6.046289   18.381848
 7   20.345000    6.062504   20.236193
13   18.780000    6.941854   15.966185
 7   18.780000    6.976814   17.767759
13   18.780000    8.864613   18.282428
 7   18.780000    8.854895   20.164638
13   20.345000    9.815307   15.800885
 7   20.345000    9.809117   17.657936
13   20.345000    6.067560   23.303146
 7   20.345000    6.063722   25.195120
13   18.780000    6.994582   20.803989
 7   18.780000    6.991961   22.689554
13   18.780000    8.830071   23.257402
 7   18.780000    8.814561   25.158331
13   20.345000    9.773558   20.743486
 7   20.345000    9.752146   22.643681
13   23.475000    6.067883    1.784508
 7   23.475000    6.063035    3.661188
13   21.910000    6.984563   -0.687249
 7   21.910000    6.991663    1.206583
13   21.910000    8.839174    1.837344
 7   21.910000    8.854151    3.731533
13   23.475000    9.731790   -0.651017
 7   23.475000    9.751028    1.251838
13   23.475000    6.030363    6.670972
 7   23.475000    5.993281    8.451908
13   21.910000    6.992502    4.277032
 7   21.910000    6.978126    6.131465
13   21.910000    8.863677    6.791236
 7   21.910000    8.834405    8.599097
13   23.475000    9.786588    4.350137
 7   23.475000    9.808111    6.238805
13   23.475000    5.962391   13.740835
 7   23.475000    5.991148   15.452229
13   21.910000    6.915248    9.034300
 7   21.910000    6.887204   10.699911
13   21.910000    8.764277   13.683951
 7   21.910000    8.831318   15.305234
13   23.475000    9.793220    9.221718
 7   23.475000    9.709760   10.709522
13   23.475000    6.046289   18.381848
 7   23.475000    6.062504   20.236193
13   21.910000    6.941854   15.966185
 7   21.910000    6.976814   17.767759
13   21.910000    8.864613   18.282428
 7   21.910000    8.854895   20.164638
13   23.475000    9.815307   15.800885
 7   23.475000    9.809117   17.657936
13   23.475000    6.067560   23.303146
 7   23.475000    6.063722   25.195120
13   21.910000    6.994582   20.803989
 7   21.910000    6.991961   22.689554
13   21.910000    8.830071   23.257402
 7   21.910000    8.814561   25.158331
13   23.475000    9.773558   20.743486
 7   23.475000    9.752146   22.643681
13    1.565000   11.579472    1.878936
 7    1.565000   11.609219    3.785638
13    0.000000   12.451041   -0.620269
 7    0.000000   12.473693    1.288708
13    0.000000   14.269322    1.919082
 7    0.000000   14.288301    3.837181
13    1.565000   15.138282   -0.587582
 7    1.565000   15.152148    1.328675
13    1.565000   11.678889    6.894915
 7    1.565000   11.750818    8.796783
13    0.000000   12.521306    4.405001
 7    0.000000   12.561295    6.317431
13    0.000000   14.311256    6.990845
 7    0.000000   14.293745    8.982409
13    1.565000   15.170837    4.467651
 7    1.565000   15.171878    6.411219
13    1.565000   11.899348   13.248894
 7    1.565000   11.756099   15.098997
13    0.000000   12.659984    9.460830
 7    0.000000   12.575289   11.894114
13    0.000000   14.213450   12.694752
 7    0.000000   14.291027   14.904571
13    1.565000   15.113954    9.713162
 7    1.565000   15.065895   11.937219
13    1.565000   11.649973   18.203580
 7    1.565000   11.611062   20.109625
13    0.000000   12.619551   15.658027
 7    0.000000   12.563849   17.577392
13    0.000000   14.306111   18.129887
 7    0.000000   14.289331   20.057262
13    1.565000   15.146367   15.487650
 7    1.565000   15.171421   17.481105
13    1.565000   11.564915   23.220693
 7    1.565000   11.542914   25.127805
13    0.000000   12.502541   20.696723
 7    0.000000   12.475054   22.606401
13    0.000000   14.258673   23.185063
 7    0.000000   14.241277   25.097964
13    1.565000   15.165448   20.644480
 7    1.565000   15.152895   22.565938
13    4.695000   11.579472    1.878936
 7    4.695000   11.609219    3.785638
13    3.130000   12.451041   -0.620269
 7    3.130000   12.473693    1.288708
13    3.130000   14.269322    1.919082
 7    3.130000   14.288301    3.837181
13    4.695000   15.138282   -0.587582
 7    4.695000   15.152148    1.328675
13    4.695000   11.678889    6.894915
 7    4.695000   11.750818    8.796783
13    3.130000   12.521306    4.405001
 7    3.130000   12.561295    6.317431
13    3.130000   14.311256    6.990845
 7    3.130000   14.293745    8.982409
13    4.695000   15.170837    4.467651
 7    4.695000   15.171878    6.411219
13    4.695000   11.899348   13.248894
 7    4.695000   11.756099   15.098997
13    3.130000   12.659984    9.460830
 7    3.130000   12.575289   11.894114
13    3.130000   14.213450   12.694752
 7    3.130000   14.291027   14.904571
13    4.695000   15.113954    9.713162
 7    4.695000   15.065895   11.937219
13    4.695000   11.649973   18.203580
 7    4.695000   11.611062   20.109625
13    3.130000   12.619551   15.658027
 7    3.130000   12.563849   17.577392
13    3.130000   14.306111   18.129887
 7    3.130000   14.289331   20.057262
13    4.695000   15.146367   15.487650
 7    4.695000   15.171421   17.481105
13    4.695000   11.564915   23.220693
 7    4.695000   11.542914   25.127805
13    3.130000   12.502541   20.696723
 7    3.130000   12.475054   22.606401
13    3.130000   14.258673   23.185063
 7    3.130000   14.241277   25.097964
13    4.695000   15.165448   20.644480
 7    4.695000   15.152895   22.565938
13    7.825000   11.579472    1.878936
 7    7.825000   11.609219    3.785638
13    6.260000   12.451041   -0.620269
 7    6.260000   12.473693    1.288708
13    6.260000   14.269322    1.919082
 7    6.260000   14.288301    3.837181
13    7.825000   15.138282   -0.587582
 7    7.825000   15.152148    1.328675
13    7.825000   11.678889    6.894915
 7    7.825000   11.750818    8.796783
13    6.260000   12.521306    4.405001
 7    6.260000   12.561295    6.317431
13    6.260000   14.311256    6.990845
 7    6.260000   14.293745    8.982409
13    7.825000   15.170837    4.467651
 7    7.825000   15.171878    6.411219
13    7.825000   11.899348   13.248894
 7    7.825000   11.756099   15.098997
13    6.260000   12.659984    9.460830
 7    6.260000   12.575289   11.894114
13    6.260000   14.213450   12.694752
 7    6.260000   14.291027   14.904571
13    7.825000   15.113954    9.713162
 7    7.825000   15.065895   11.937219
13    7.825000   11.649973   18.203580
 7    7.825000   11.611062   20.109625
13    6.260000   12.619551   15.658027
 7    6.260000   12.563849   17.577392
13    6.260000   14.306111   18.129887
 7    6.260000   14.289331   20.057262
13    7.825000   15.146367   15.487650
 7    7.825000   15.171421   17.481105
13    7.825000   11.564915   23.220693
 7    7.825000   11.542914   25.127805
13    6.260000   12.502541   20.696723
 7    6.260000   12.475054   22.606401
13    6.260000   14.258673   23.185063
 7    6.260000   14.241277   25.097964
13    7.825000   15.165448   20.644480
 7    7.825000   15.152895   22.565938
13   10.955000   11.579472    1.878936
 7   10.955000   11.609219    3.785638