CRYSTAL
PRIMVEC
  34.0020000   0.0000000   0.0000000
   0.0000000  34.0020000   0.0000000
   0.0000000   0.0000000  34.0020000
CONVVEC
  34.0020000   0.0000000   0.0000000
   0.0000000  34.0020000   0.0000000
   0.0000000   0.0000000  34.0020000

PRIMCOORD
1343 1
34    1.416750    1.416750    1.416750
34    1.416750    4.250250    4.250250
34    4.250250    1.416750    4.250250
34    4.250250    4.250250    1.416750
30    2.833500    2.833500    5.667000
34    1.416750    1.416750    7.083750
34    1.416750    4.250250    9.917250
34    4.250250    1.416750    9.917250
34    4.250250    4.250250    7.083750
30    2.833500    2.833500   11.334000
34    1.416750    1.416750   12.750750
34    1.416750    4.250250   15.584250
34    4.250250    1.416750   15.584250
34    4.250250    4.250250   12.750750
30    2.833500    2.833500   17.001000
34    1.416750    1.416750   18.417750
34    1.416750    4.250250   21.251250
34    4.250250    1.416750   21.251250
34    4.250250    4.250250   18.417750
30    2.833500    2.833500   22.668000
34    1.416750    1.416750   24.084750
34    1.416750    4.250250   26.918250
34    4.250250    1.416750   26.918250
34    4.250250    4.250250   24.084750
30    2.833500    2.833500   28.335000
34    1.416750    1.416750   29.751750
34    1.416750    4.250250   32.585250
34    4.250250    1.416750   32.585250
34    4.250250    4.250250   29.751750
30    5.667000    2.833500    2.833500
34    7.083750    1.416750    1.416750
34    7.083750    4.250250    4.250250
34    9.917250    1.416750    4.250250
34    9.917250    4.250250    1.416750
30    5.667000    2.833500    8.500500
30    8.500500    2.833500    5.667000
34    7.083750    1.416750    7.083750
34    7.083750    4.250250    9.917250
34    9.917250    1.416750    9.917250
34    9.917250    4.250250    7.083750
30    5.667000    2.833500   14.167500
30    8.500500    2.833500   11.334000
34    7.083750    1.416750   12.750750
34    7.083750    4.250250   15.584250
34    9.917250    1.416750   15.584250
34    9.917250    4.250250   12.750750
30    5.667000    2.833500   19.834500
30    8.500500    2.833500   17.001000
34    7.083750    1.416750   18.417750
34    7.083750    4.250250   21.251250
34    9.917250    1.416750   21.251250
34    9.917250    4.250250   18.417750
30    5.667000    2.833500   25.501500
30    8.500500    2.833500   22.668000
34    7.083750    1.416750   24.084750
34    7.083750    4.250250   26.918250
34    9.917250    1.416750   26.918250
34    9.917250    4.250250   24.084750
30    5.667000    2.833500   31.168500
30    8.500500    2.833500   28.335000
34    7.083750    1.416750   29.751750
34    7.083750    4.250250   32.585250
34    9.917250    1.416750   32.585250
34    9.917250    4.250250   29.751750
30   11.334000    2.833500    2.833500
34   12.750750    1.416750    1.416750
34   12.750750    4.250250    4.250250
34   15.584250    1.416750    4.250250
34   15.584250    4.250250    1.416750
30   11.334000    2.833500    8.500500
30   14.167500    2.833500    5.667000
34   12.750750    1.416750    7.083750
34   12.750750    4.250250    9.917250
34   15.584250    1.416750    9.917250
34   15.584250    4.250250    7.083750
30   11.334000    2.833500   14.167500
30   14.167500    2.833500   11.334000
34   12.750750    1.416750   12.750750
34   12.750750    4.250250   15.584250
34   15.584250    1.416750   15.584250
34   15.584250    4.250250   12.750750
30   11.334000    2.833500   19.834500
30   14.167500    2.833500   17.001000
34   12.750750    1.416750   18.417750
34   12.750750    4.250250   21.251250
34   15.584250    1.416750   21.251250
34   15.584250    4.250250   18.417750
30   11.334000    2.833500   25.501500
30   14.167500    2.833500   22.668000
34   12.750750    1.416750   24.084750
34   12.750750    4.250250   26.918250
34   15.584250    1.416750   26.918250
34   15.584250    4.250250   24.084750
30   11.334000    2.833500   31.168500
30   14.167500    2.833500   28.335000
34   12.750750    1.416750   29.751750
34   12.750750    4.250250   32.585250
34   15.584250    1.416750   32.585250
34   15.584250    4.250250   29.751750
30   17.001000    2.833500    2.833500
34   18.417750    1.416750    1.416750
34   18.417750    4.250250    4.250250
34   21.251250    1.416750    4.250250
34   21.251250    4.250250    1.416750
30   17.001000    2.833500    8.500500
30   19.834500    2.833500    5.667000
34   18.417750    1.416750    7.083750
34   18.417750    4.250250    9.917250
34   21.251250    1.416750    9.917250
34   21.251250    4.250250    7.083750
30   17.001000    2.833500   14.167500
30   19.834500    2.833500   11.334000
34   18.417750    1.416750   12.750750
34   18.417750    4.250250   15.584250
34   21.251250    1.416750   15.584250
34   21.251250    4.250250   12.750750
30   17.001000    2.833500   19.834500
30   19.834500    2.833500   17.001000
34   18.417750    1.416750   18.417750
34   18.417750    4.250250   21.251250
34   21.251250    1.416750   21.251250
34   21.251250    4.250250   18.417750
30   17.001000    2.833500   25.501500
30   19.834500    2.833500   22.668000
34   18.417750    1.416750   24.084750
34   18.417750    4.250250   26.918250
34   21.251250    1.416750   26.918250
34   21.251250    4.250250   24.084750
30   17.001000    2.833500   31.168500
30   19.834500    2.833500   28.335000
34   18.417750    1.416750   29.751750
34   18.417750    4.250250   32.585250
34   21.251250    1.416750   32.585250
34   21.251250    4.250250   29.751750
30   22.668000    2.833500    2.833500
34   24.084750    1.416750    1.416750
34   24.084750    4.250250    4.250250
34   26.918250    1.416750    4.250250
34   26.918250    4.250250    1.416750
30   22.668000    2.833500    8.500500
30   25.501500    2.833500    5.667000
34   24.084750    1.416750    7.083750
34   24.084750    4.250250    9.917250
34   26.918250    1.416750    9.917250
34   26.918250    4.250250    7.083750
30   22.668000    2.833500   14.167500
30   25.501500    2.833500   11.334000
34   24.084750    1.416750   12.750750
34   24.084750    4.250250   15.584250
34   26.918250    1.416750   15.584250
34   26.918250    4.250250   12.750750
30   22.668000    2.833500   19.834500
30   25.501500    2.833500   17.001000
34   24.084750    1.416750   18.417750
34   24.084750    4.250250   21.251250
34   26.918250    1.416750   21.251250
34   26.918250    4.250250   18.417750
30   22.668000    2.833500   25.501500
30   25.501500    2.833500   22.668000
34   24.084750    1.416750   24.084750
34   24.084750    4.250250   26.918250
34   26.918250    1.416750   26.918250
34   26.918250    4.250250   24.084750
34   24.084750    1.416750   29.751750
30   28.335000    2.833500    2.833500
34   29.751750    1.416750    1.416750
34   29.751750    4.250250    4.250250
34   32.585250    1.416750    4.250250
34   32.585250    4.250250    1.416750
30   28.335000    2.833500    8.500500
30   31.168500    2.833500    5.667000
34   29.751750    1.416750    7.083750
34   29.751750    4.250250    9.917250
34   32.585250    1.416750    9.917250
34   32.585250    4.250250    7.083750
30   28.335000    2.833500   14.167500
30   31.168500    2.833500   11.334000
34   29.751750    1.416750   12.750750
34   29.751750    4.250250   15.584250
34   32.585250    1.416750   15.584250
34   32.585250    4.250250   12.750750
30   28.335000    2.833500   19.834500
30   31.168500    2.833500   17.001000
34   29.751750    1.416750   18.417750
34   29.751750    4.250250   21.251250
34   32.585250    1.416750   21.251250
34   32.585250    4.250250   18.417750
34   29.751750    1.416750   24.084750
30   26.446000    0.944500   29.279500
30   29.279500    0.944500   26.446000
34   27.862750    2.361250   30.696250
34   30.696250    2.361250   27.862750
30    2.833500    5.667000    2.833500
34    1.416750    7.083750    1.416750
34    1.416750    9.917250    4.250250
34    4.250250    7.083750    4.250250
34    4.250250    9.917250    1.416750
30    2.833500    5.667000    8.500500
30    2.833500    8.500500    5.667000
34    1.416750    7.083750    7.083750
34    1.416750    9.917250    9.917250
34    4.250250    7.083750    9.917250
34    4.250250    9.917250    7.083750
30    2.833500    5.667000   14.167500
30    2.833500    8.500500   11.334000
34    1.416750    7.083750   12.750750
34    1.416750    9.917250   15.584250
34    4.250250    7.083750   15.584250
34    4.250250    9.917250   12.750750
30    2.833500    5.667000   19.834500
30    2.833500    8.500500   17.001000
34    1.416750    7.083750   18.417750
34    1.416750    9.917250   21.251250
34    4.250250    7.083750   21.251250
34    4.250250    9.917250   18.417750
30    2.833500    5.667000   25.501500
30    2.833500    8.500500   22.668000
34    1.416750    7.083750   24.084750
34    1.416750    9.917250   26.918250
34    4.250250    7.083750   26.918250
34    4.250250    9.917250   24.084750
30    2.833500    5.667000   31.168500
30    2.833500    8.500500   28.335000
34    1.416750    7.083750   29.751750
34    1.416750    9.917250   32.585250
34    4.250250    7.083750   32.585250
34    4.250250    9.917250   29.751750
30    5.667000    8.500500    2.833500
30    8.500500    5.667000    2.833500
34    7.083750    7.083750    1.416750
34    7.083750    9.917250    4.250250
34    9.917250    7.083750    4.250250
34    9.917250    9.917250    1.416750
30    5.667000    5.667000    5.667000
30    5.667000    8.500500    8.500500
30    8.500500    5.667000    8.500500
30    8.500500    8.500500    5.667000
34    7.083750    7.083750    7.083750
34    7.083750    9.917250    9.917250
34    9.917250    7.083750    9.917250
34    9.917250    9.917250    7.083750
30    5.667000    5.667000   11.334000
30    5.667000    8.500500   14.167500
30    8.500500    5.667000   14.167500
30    8.500500    8.500500   11.334000
34    7.083750    7.083750   12.750750
34    7.083750    9.917250   15.584250
34    9.917250    7.083750   15.584250
34    9.917250    9.917250   12.750750
30    5.667000    5.667000   17.001000
30    5.667000    8.500500   19.834500
30    8.500500    5.667000   19.834500
30    8.500500    8.500500   17.001000
34    7.083750    7.083750   18.417750
34    7.083750    9.917250   21.251250
34    9.917250    7.083750   21.251250
34    9.917250    9.917250   18.417750
30    5.667000    5.667000   22.668000
30    5.667000    8.500500   25.501500
30    8.500500    5.667000   25.501500
30    8.500500    8.500500   22.668000
34    7.083750    7.083750   24.084750
34    7.083750    9.917250   26.918250
34    9.917250    7.083750   26.918250
34    9.917250    9.917250   24.084750
30    5.667000    5.667000   28.335000
30    5.667000    8.500500   31.168500
30    8.500500    5.667000   31.168500
30    8.500500    8.500500   28.335000
34    7.083750    7.083750   29.751750
34    7.083750    9.917250   32.585250
34    9.917250    7.083750   32.585250
34    9.917250    9.917250   29.751750
30   11.334000    8.500500    2.833500
30   14.167500    5.667000    2.833500
34   12.750750    7.083750    1.416750
34   12.750750    9.917250    4.250250
34   15.584250    7.083750    4.250250
34   15.584250    9.917250    1.416750
30   11.334000    5.667000    5.667000
30   11.334000    8.500500    8.500500
30   14.167500    5.667000    8.500500
30   14.167500    8.500500    5.667000
34   12.750750    7.083750    7.083750
34   12.750750    9.917250    9.917250
34   15.584250    7.083750    9.917250
34   15.584250    9.917250    7.083750
30   11.334000    5.667000   11.334000
30   11.334000    8.500500   14.167500
30   14.167500    5.667000   14.167500
30   14.167500    8.500500   11.334000
34   12.750750    7.083750   12.750750
34   12.750750    9.917250   15.584250
34   15.584250    7.083750   15.584250
34   15.584250    9.917250   12.750750
30   11.334000    5.667000   17.001000
30   11.334000    8.500500   19.834500
30   14.167500    5.667000   19.834500
30   14.167500    8.500500   17.001000
34   12.750750    7.083750   18.417750
34   12.750750    9.917250   21.251250
34   15.584250    7.083750   21.251250
34   15.584250    9.917250   18.417750
30   11.334000    5.667000   22.668000
30   11.334000    8.500500   25.501500
30   14.167500    5.667000   25.501500
30   14.167500    8.500500   22.668000
34   12.750750    7.083750   24.084750
34   12.750750    9.917250   26.918250
34   15.584250    7.083750   26.918250
34   15.584250    9.917250   24.084750
30   11.334000    5.667000   28.335000
30   11.334000    8.500500   31.168500
30   14.167500    5.667000   31.168500
30   14.167500    8.500500   28.335000
34   12.750750    7.083750   29.751750
34   12.750750    9.917250   32.585250
34   15.584250    7.083750   32.585250
34   15.584250    9.917250   29.751750
30   17.001000    8.500500    2.833500
30   19.834500    5.667000    2.833500
34   18.417750    7.083750    1.416750
34   18.417750    9.917250    4.250250
34   21.251250    7.083750    4.250250
34   21.251250    9.917250    1.416750
30   17.001000    5.667000    5.667000
30   17.001000    8.500500    8.500500
30   19.834500    5.667000    8.500500
30   19.834500    8.500500    5.667000
34   18.417750    7.083750    7.083750
34   18.417750    9.917250    9.917250
34   21.251250    7.083750    9.917250
34   21.251250    9.917250    7.083750
30   17.001000    5.667000   11.334000
30   17.001000    8.500500   14.167500
30   19.834500    5.667000   14.167500
30   19.834500    8.500500   11.334000
34   18.417750    7.083750   12.750750
34   18.417750    9.917250   15.584250
34   21.251250    7.083750   15.584250
34   21.251250    9.917250   12.750750
30   17.001000    5.667000   17.001000
30   17.001000    8.500500   19.834500
30   19.834500    5.667000   19.834500
30   19.834500    8.500500   17.001000
34   18.417750    7.083750   18.417750
34   18.417750    9.917250   21.251250
34   21.251250    7.083750   21.251250
34   21.251250    9.917250   18.417750
30   17.001000    5.667000   22.668000
30   17.001000    8.500500   25.501500
30   19.834500    5.667000   25.501500
30   19.834500    8.500500   22.668000
34   18.417750    7.083750   24.084750
34   18.417750    9.917250   26.918250
34   21.251250    7.083750   26.918250
34   21.251250    9.917250   24.084750
30   17.001000    5.667000   28.335000
34   18.417750    7.083750   29.751750
30   22.668000    8.500500    2.833500
30   25.501500    5.667000    2.833500
34   24.084750    7.083750    1.416750
34   24.084750    9.917250    4.250250
34   26.918250    7.083750    4.250250
34   26.918250    9.917250    1.416750
30   22.668000    5.667000    5.667000
30   22.668000    8.500500    8.500500
30   25.501500    5.667000    8.500500
30   25.501500    8.500500    5.667000
34   24.084750    7.083750    7.083750
34   24.084750    9.917250    9.917250
34   26.918250    7.083750    9.917250
34   26.918250    9.917250    7.083750
30   22.668000    5.667000   11.334000
30   22.668000    8.500500   14.167500
30   25.501500    5.667000   14.167500
30   25.501500    8.500500   11.334000
34   24.084750    7.083750   12.750750
34   24.084750    9.917250   15.584250
34   26.918250    7.083750   15.584250
34   26.918250    9.917250   12.750750
30   22.668000    5.667000   17.001000
30   22.668000    8.500500   19.834500
30   25.501500    5.667000   19.834500
30   25.501500    8.500500   17.001000
34   24.084750    7.083750   18.417750
34   24.084750    9.917250   21.251250
34   26.918250    7.083750   21.251250
34   26.918250    9.917250   18.417750
30   22.668000    5.667000   22.668000
34   24.084750    7.083750   24.084750
30   20.779000    6.611500   29.279500
30   23.612500    3.778000   29.279500
30   23.612500    6.611500   26.446000
34   22.195750    8.028250   30.696250
34   25.029250    5.194750   30.696250
34   25.029250    8.028250   27.862750
30   28.335000    8.500500    2.833500
30   31.168500    5.667000    2.833500
34   29.751750    7.083750    1.416750
34   29.751750    9.917250    4.250250
34   32.585250    7.083750    4.250250
34   32.585250    9.917250    1.416750
30   28.335000    5.667000    5.667000
30   28.335000    8.500500    8.500500
30   31.168500    5.667000    8.500500
30   31.168500    8.500500    5.667000
34   29.751750    7.083750    7.083750
34   29.751750    9.917250    9.917250
34   32.585250    7.083750    9.917250
34   32.585250    9.917250    7.083750
30   28.335000    5.667000   11.334000
30   28.335000    8.500500   14.167500
30   31.168500    5.667000   14.167500
30   31.168500    8.500500   11.334000
34   29.751750    7.083750   12.750750
34   29.751750    9.917250   15.584250
34   32.585250    7.083750   15.584250
34   32.585250    9.917250   12.750750
30   28.335000    5.667000   17.001000
34   29.751750    7.083750   18.417750
30   26.446000    6.611500   23.612500
30   29.279500    3.778000   23.612500
30   29.279500    6.611500   20.779000
34   27.862750    8.028250   25.029250
34   30.696250    5.194750   25.029250
34   30.696250    8.028250   22.195750
30   26.446000    3.778000   26.446000
30   26.446000    6.611500   29.279500
30   29.279500    3.778000   29.279500
30   29.279500    6.611500   26.446000
34   27.862750    5.194750   27.862750
34   27.862750    8.028250   30.696250
34   30.696250    5.194750   30.696250
34   30.696250    8.028250   27.862750
30    2.833500   11.334000    2.833500
34    1.416750   12.750750    1.416750
34    1.416750   15.584250    4.250250
34    4.250250   12.750750    4.250250
34    4.250250   15.584250    1.416750
30    2.833500   11.334000    8.500500
30    2.833500   14.167500    5.667000
34    1.416750   12.750750    7.083750
34    1.416750   15.584250    9.917250
34    4.250250   12.750750    9.917250
34    4.250250   15.584250    7.083750
30    2.833500   11.334000   14.167500
30    2.833500   14.167500   11.334000
34    1.416750   12.750750   12.750750
34    1.416750   15.584250   15.584250
34    4.250250   12.750750   15.584250
34    4.250250   15.584250   12.750750
30    2.833500   11.334000   19.834500
30    2.833500   14.167500   17.001000
34    1.416750   12.750750   18.417750
34    1.416750   15.584250   21.251250
34    4.250250   12.750750   21.251250
34    4.250250   15.584250   18.417750
30    2.833500   11.334000   25.501500
30    2.833500   14.167500   22.668000
34    1.416750   12.750750   24.084750
34    1.416750   15.584250   26.918250
34    4.250250   12.750750   26.918250
34    4.250250   15.584250   24.084750
30    2.833500   11.334000   31.168500
30    2.833500   14.167500   28.335000
34    1.416750   12.750750   29.751750
34    1.416750   15.584250   32.585250
34    4.250250   12.750750   32.585250
34    4.250250   15.584250   29.751750
30    5.667000   14.167500    2.833500
30    8.500500   11.334000    2.833500
34    7.083750   12.750750    1.416750
34    7.083750   15.584250    4.250250
34    9.917250   12.750750    4.250250
34    9.917250   15.584250    1.416750
30    5.667000   11.334000    5.667000
30    5.667000   14.167500    8.500500
30    8.500500   11.334000    8.500500
30    8.500500   14.167500    5.667000
34    7.083750   12.750750    7.083750
34    7.083750   15.584250    9.917250
34    9.917250   12.750750    9.917250
34    9.917250   15.584250    7.083750
30    5.667000   11.334000   11.334000
30    5.667000   14.167500   14.167500
30    8.500500   11.334000   14.167500
30    8.500500   14.167500   11.334000
34    7.083750   12.750750   12.750750
34    7.083750   15.584250   15.584250
34    9.917250   12.750750   15.584250
34    9.917250   15.584250   12.750750
30    5.667000   11.334000   17.001000
30    5.667000   14.167500   19.834500
30    8.500500   11.334000   19.834500
30    8.500500   14.167500   17.001000
34    7.083750   12.750750   18.417750
34    7.083750   15.584250   21.251250
34    9.917250   12.750750   21.251250
34    9.917250   15.584250   18.417750
30    5.667000   11.334000   22.668000
30    5.667000   14.167500   25.501500
30    8.500500   11.334000   25.501500
30    8.500500   14.167500   22.668000
34    7.083750   12.750750   24.084750
34    7.083750   15.584250   26.918250
34    9.917250   12.750750   26.918250
34    9.917250   15.584250   24.084750
30    5.667000   11.334000   28.335000
30    5.667000   14.167500   31.168500
30    8.500500   11.334000   31.168500
30    8.500500   14.167500   28.335000
34    7.083750   12.750750   29.751750
34    7.083750   15.584250   32.585250
34    9.917250   12.750750   32.585250
34    9.917250   15.584250   29.751750
30   11.334000   14.167500    2.833500
30   14.167500   11.334000    2.833500
34   12.750750   12.750750    1.416750
34   12.750750   15.584250    4.250250
34   15.584250   12.750750    4.250250
34   15.584250   15.584250    1.416750
30   11.334000   11.334000    5.667000
30   11.334000   14.167500    8.500500
30   14.167500   11.334000    8.500500
30   14.167500   14.167500    5.667000
34   12.750750   12.750750    7.083750
34   12.750750   15.584250    9.917250
34   15.584250   12.750750    9.917250
34   15.584250   15.584250    7.083750
30   11.334000   11.334000   11.334000
30   11.334000   14.167500   14.167500
30   14.167500   11.334000   14.167500
30   14.167500   14.167500   11.334000
34   12.750750   12.750750   12.750750
34   12.750750   15.584250   15.584250
34   15.584250   12.750750   15.584250
34   15.584250   15.584250   12.750750
30   11.334000   11.334000   17.001000
30   11.334000   14.167500   19.834500
30   14.167500   11.334000   19.834500
30   14.167500   14.167500   17.001000
34   12.750750   12.750750   18.417750
34   12.750750   15.584250   21.251250
34   15.584250   12.750750   21.251250
34   15.584250   15.584250   18.417750
30   11.334000   11.334000   22.668000
30   11.334000   14.167500   25.501500
30   14.167500   11.334000   25.501500
30   14.167500   14.167500   22.668000
34   12.750750   12.750750   24.084750
34   12.750750   15.584250   26.918250
34   15.584250   12.750750   26.918250
34   15.584250   15.584250   24.084750
30   11.334000   11.334000   28.335000
34   12.750750   12.750750   29.751750
30   17.001000   14.167500    2.833500
30   19.834500   11.334000    2.833500
34   18.417750   12.750750    1.416750
34   18.417750   15.584250    4.250250
34   21.251250   12.750750    4.250250
34   21.251250   15.584250    1.416750
30   17.001000   11.334000    5.667000
30   17.001000   14.167500    8.500500
30   19.834500   11.334000    8.500500
30   19.834500   14.167500    5.667000
34   18.417750   12.750750    7.083750
34   18.417750   15.584250    9.917250
34   21.251250   12.750750    9.917250
34   21.251250   15.584250    7.083750
30   17.001000   11.334000   11.334000
30   17.001000   14.167500   14.167500
30   19.834500   11.334000   14.167500
30   19.834500   14.167500   11.334000
34   18.417750   12.750750   12.750750
34   18.417750   15.584250   15.584250
34   21.251250   12.750750   15.584250
34   21.251250   15.584250   12.750750
30   17.001000   11.334000   17.001000
30   17.001000   14.167500   19.834500
30   19.834500   11.334000   19.834500
30   19.834500   14.167500   17.001000
34   18.417750   12.750750   18.417750
34   18.417750   15.584250   21.251250
34   21.251250   12.750750   21.251250
34   21.251250   15.584250   18.417750
30   17.001000   11.334000   22.668000
34   18.417750   12.750750   24.084750
30   15.112000   12.278500   29.279500
30   17.945500    9.445000   29.279500
30   17.945500   12.278500   26.446000
34   16.528750   13.695250   30.696250
34   19.362250   10.861750   30.696250
34   19.362250   13.695250   27.862750
30   22.668000   14.167500    2.833500
30   25.501500   11.334000    2.833500
34   24.084750   12.750750    1.416750
34   24.084750   15.584250    4.250250
34   26.918250   12.750750    4.250250
34   26.918250   15.584250    1.416750
30   22.668000   11.334000    5.667000
30   22.668000   14.167500    8.500500
30   25.501500   11.334000    8.500500
30   25.501500   14.167500    5.667000
34   24.084750   12.750750    7.083750
34   24.084750   15.584250    9.917250
34   26.918250   12.750750    9.917250
34   26.918250   15.584250    7.083750
30   22.668000   11.334000   11.334000
30   22.668000   14.167500   14.167500
30   25.501500   11.334000   14.167500
30   25.501500   14.167500   11.334000
34   24.084750   12.750750   12.750750
34   24.084750   15.584250   15.584250
34   26.918250   12.750750   15.584250
34   26.918250   15.584250   12.750750
30   22.668000   11.334000   17.001000
34   24.084750   12.750750   18.417750
30   20.779000   12.278500   23.612500
30   23.612500    9.445000   23.612500
30   23.612500   12.278500   20.779000
34   22.195750   13.695250   25.029250
34   25.029250   10.861750   25.029250
34   25.029250   13.695250   22.195750
30   20.779000    9.445000   26.446000
30   20.779000   12.278500   29.279500
30   23.612500    9.445000   29.279500
30   23.612500   12.278500   26.446000
34   22.195750   10.861750   27.862750
34   22.195750   13.695250   30.696250
34   25.029250   10.861750   30.696250
34   25.029250   13.695250   27.862750
30   28.335000   14.167500    2.833500
30   31.168500   11.334000    2.833500
34   29.751750   12.750750    1.416750
34   29.751750   15.584250    4.250250
34   32.585250   12.750750    4.250250
34   32.585250   15.584250    1.416750
30   28.335000   11.334000    5.667000
30   28.335000   14.167500    8.500500
30   31.168500   11.334000    8.500500
30   31.168500   14.167500    5.667000
34   29.751750   12.750750    7.083750
34   29.751750   15.584250    9.917250
34   32.585250   12.750750    9.917250
34   32.585250   15.584250    7.083750
30   28.335000   11.334000   11.334000
34   29.751750   12.750750   12.750750
30   26.446000   12.278500   17.945500
30   29.279500    9.445000   17.945500
30   29.279500   12.278500   15.112000
34   27.862750   13.695250   19.362250
34   30.696250   10.861750   19.362250
34   30.696250   13.695250   16.528750
30   26.446000    9.445000   20.779000
30   26.446000   12.278500   23.612500
30   29.279500    9.445000   23.612500
30   29.279500   12.278500   20.779000
34   27.862750   10.861750   22.195750
34   27.862750   13.695250   25.029250
34   30.696250   10.861750   25.029250
34   30.696250   13.695250   22.195750
30   26.446000    9.445000   26.446000
30   26.446000   12.278500   29.279500
30   29.279500    9.445000   29.279500
30   29.279500   12.278500   26.446000
34   27.862750   10.861750   27.862750
34   27.862750   13.695250   30.696250
34   30.696250   10.861750   30.696250
34   30.696250   13.695250   27.862750
30    2.833500   17.001000    2.833500
34    1.416750   18.417750    1.416750
34    1.416750   21.251250    4.250250
34    4.250250   18.417750    4.250250
34    4.250250   21.251250    1.416750
30    2.833500   17.001000    8.500500
30    2.833500   19.834500    5.667000
34    1.416750   18.417750    7.083750
34    1.416750   21.251250    9.917250
34    4.250250   18.417750    9.917250
34    4.250250   21.251250    7.083750
30    2.833500   17.001000   14.167500
30    2.833500   19.834500   11.334000
34    1.416750   18.417750   12.750750
34    1.416750   21.251250   15.584250
34    4.250250   18.417750   15.584250
34    4.250250   21.251250   12.750750
30    2.833500   17.001000   19.834500
30    2.833500   19.834500   17.001000
34    1.416750   18.417750   18.417750
34    1.416750   21.251250   21.251250
34    4.250250   18.417750   21.251250
34    4.250250   21.251250   18.417750
30    2.833500   17.001000   25.501500
30    2.833500   19.834500   22.668000
34    1.416750   18.417750   24.084750
34    1.416750   21.251250   26.918250
34    4.250250   18.417750   26.918250
34    4.250250   21.251250   24.084750
30    2.833500   17.001000   31.168500
30    2.833500   19.834500   28.335000
34    1.416750   18.417750   29.751750
34    1.416750   21.251250   32.585250
34    4.250250   18.417750   32.585250
34    4.250250   21.251250   29.751750
30    5.667000   19.834500    2.833500
30    8.500500   17.001000    2.833500
34    7.083750   18.417750    1.416750
34    7.083750   21.251250    4.250250
34    9.917250   18.417750    4.250250
34    9.917250   21.251250    1.416750
30    5.667000   17.001000    5.667000
30    5.667000   19.834500    8.500500
30    8.500500   17.001000    8.500500
30    8.500500   19.834500    5.667000
34    7.083750   18.417750    7.083750
34    7.083750   21.251250    9.917250
34    9.917250   18.417750    9.917250
34    9.917250   21.251250    7.083750
30    5.667000   17.001000   11.334000
30    5.667000   19.834500   14.167500
30    8.500500   17.001000   14.167500
30    8.500500   19.834500   11.334000
34    7.083750   18.417750   12.750750
34    7.083750   21.251250   15.584250
34    9.917250   18.417750   15.584250
34    9.917250   21.251250   12.750750
30    5.667000   17.001000   17.001000
30    5.667000   19.834500   19.834500
30    8.500500   17.001000   19.834500
30    8.500500   19.834500   17.001000
34    7.083750   18.417750   18.417750
34    7.083750   21.251250   21.251250
34    9.917250   18.417750   21.251250
34    9.917250   21.251250   18.417750
30    5.667000   17.001000   22.668000
30    5.667000   19.834500   25.501500
30    8.500500   17.001000   25.501500
30    8.500500   19.834500   22.668000
34    7.083750   18.417750   24.084750
34    7.083750   21.251250   26.918250
34    9.917250   18.417750   26.918250
34    9.917250   21.251250   24.084750
30    5.667000   17.001000   28.335000
34    7.083750   18.417750   29.751750
30   11.334000   19.834500    2.833500
30   14.167500   17.001000    2.833500
34   12.750750   18.417750    1.416750
34   12.750750   21.251250    4.250250
34   15.584250   18.417750    4.250250
34   15.584250   21.251250    1.416750
30   11.334000   17.001000    5.667000
30   11.334000   19.834500    8.500500
30   14.167500   17.001000    8.500500
30   14.167500   19.834500    5.667000
34   12.750750   18.417750    7.083750
34   12.750750   21.251250    9.917250
34   15.584250   18.417750    9.917250
34   15.584250   21.251250    7.083750
30   11.334000   17.001000   11.334000
30   11.334000   19.834500   14.167500
30   14.167500   17.001000   14.167500