CRYSTAL
PRIMVEC
  34.0020000   0.0000000   0.0000000
   0.0000000  34.0020000   0.0000000
   0.0000000   0.0000000  34.0020000
CONVVEC
  34.0020000   0.0000000   0.0000000
   0.0000000  34.0020000   0.0000000
   0.0000000   0.0000000  34.0020000

PRIMCOORD
1591 1
34    1.416750    1.416750    1.416750
34    1.416750    4.250250    4.250250
34    4.250250    1.416750    4.250250
34    4.250250    4.250250    1.416750
30    2.833500    2.833500    5.667000
34    1.416750    1.416750    7.083750
34    1.416750    4.250250    9.917250
34    4.250250    1.416750    9.917250
34    4.250250    4.250250    7.083750
30    2.833500    2.833500   11.334000
34    1.416750    1.416750   12.750750
34    1.416750    4.250250   15.584250
34    4.250250    1.416750   15.584250
34    4.250250    4.250250   12.750750
30    2.833500    2.833500   17.001000
34    1.416750    1.416750   18.417750
34    1.416750    4.250250   21.251250
34    4.250250    1.416750   21.251250
34    4.250250    4.250250   18.417750
30    2.833500    2.833500   22.668000
34    1.416750    1.416750   24.084750
34    1.416750    4.250250   26.918250
34    4.250250    1.416750   26.918250
34    4.250250    4.250250   24.084750
30    2.833500    2.833500   28.335000
34    1.416750    1.416750   29.751750
34    1.416750    4.250250   32.585250
34    4.250250    1.416750   32.585250
34    4.250250    4.250250   29.751750
30    5.667000    2.833500    2.833500
34    7.083750    1.416750    1.416750
34    7.083750    4.250250    4.250250
34    9.917250    1.416750    4.250250
34    9.917250    4.250250    1.416750
30    5.667000    2.833500    8.500500
30    8.500500    2.833500    5.667000
34    7.083750    1.416750    7.083750
34    7.083750    4.250250    9.917250
34    9.917250    1.416750    9.917250
34    9.917250    4.250250    7.083750
30    5.667000    2.833500   14.167500
30    8.500500    2.833500   11.334000
34    7.083750    1.416750   12.750750
34    7.083750    4.250250   15.584250
34    9.917250    1.416750   15.584250
34    9.917250    4.250250   12.750750
30    5.667000    2.833500   19.834500
30    8.500500    2.833500   17.001000
34    7.083750    1.416750   18.417750
34    7.083750    4.250250   21.251250
34    9.917250    1.416750   21.251250
34    9.917250    4.250250   18.417750
30    5.667000    2.833500   25.501500
30    8.500500    2.833500   22.668000
34    7.083750    1.416750   24.084750
34    7.083750    4.250250   26.918250
34    9.917250    1.416750   26.918250
34    9.917250    4.250250   24.084750
30    5.667000    2.833500   31.168500
30    8.500500    2.833500   28.335000
34    7.083750    1.416750   29.751750
34    7.083750    4.250250   32.585250
34    9.917250    1.416750   32.585250
34    9.917250    4.250250   29.751750
30   11.334000    2.833500    2.833500
34   12.750750    1.416750    1.416750
34   12.750750    4.250250    4.250250
34   15.584250    1.416750    4.250250
34   15.584250    4.250250    1.416750
30   11.334000    2.833500    8.500500
30   14.167500    2.833500    5.667000
34   12.750750    1.416750    7.083750
34   12.750750    4.250250    9.917250
34   15.584250    1.416750    9.917250
34   15.584250    4.250250    7.083750
30   11.334000    2.833500   14.167500
30   14.167500    2.833500   11.334000
34   12.750750    1.416750   12.750750
34   12.750750    4.250250   15.584250
34   15.584250    1.416750   15.584250
34   15.584250    4.250250   12.750750
30   11.334000    2.833500   19.834500
30   14.167500    2.833500   17.001000
34   12.750750    1.416750   18.417750
34   12.750750    4.250250   21.251250
34   15.584250    1.416750   21.251250
34   15.584250    4.250250   18.417750
30   11.334000    2.833500   25.501500
30   14.167500    2.833500   22.668000
34   12.750750    1.416750   24.084750
34   12.750750    4.250250   26.918250
34   15.584250    1.416750   26.918250
34   15.584250    4.250250   24.084750
30   11.334000    2.833500   31.168500
30   14.167500    2.833500   28.335000
34   12.750750    1.416750   29.751750
34   12.750750    4.250250   32.585250
34   15.584250    1.416750   32.585250
34   15.584250    4.250250   29.751750
30   17.001000    2.833500    2.833500
34   18.417750    1.416750    1.416750
34   18.417750    4.250250    4.250250
34   21.251250    1.416750    4.250250
34   21.251250    4.250250    1.416750
30   17.001000    2.833500    8.500500
30   19.834500    2.833500    5.667000
34   18.417750    1.416750    7.083750
34   18.417750    4.250250    9.917250
34   21.251250    1.416750    9.917250
34   21.251250    4.250250    7.083750
30   17.001000    2.833500   14.167500
30   19.834500    2.833500   11.334000
34   18.417750    1.416750   12.750750
34   18.417750    4.250250   15.584250
34   21.251250    1.416750   15.584250
34   21.251250    4.250250   12.750750
30   17.001000    2.833500   19.834500
30   19.834500    2.833500   17.001000
34   18.417750    1.416750   18.417750
34   18.417750    4.250250   21.251250
34   21.251250    1.416750   21.251250
34   21.251250    4.250250   18.417750
30   17.001000    2.833500   25.501500
30   19.834500    2.833500   22.668000
34   18.417750    1.416750   24.084750
34   18.417750    4.250250   26.918250
34   21.251250    1.416750   26.918250
34   21.251250    4.250250   24.084750
30   17.001000    2.833500   31.168500
30   19.834500    2.833500   28.335000
34   18.417750    1.416750   29.751750
34   18.417750    4.250250   32.585250
34   21.251250    1.416750   32.585250
34   21.251250    4.250250   29.751750
30   22.668000    2.833500    2.833500
34   24.084750    1.416750    1.416750
34   24.084750    4.250250    4.250250
34   26.918250    1.416750    4.250250
34   26.918250    4.250250    1.416750
30   22.668000    2.833500    8.500500
30   25.501500    2.833500    5.667000
34   24.084750    1.416750    7.083750
34   24.084750    4.250250    9.917250
34   26.918250    1.416750    9.917250
34   26.918250    4.250250    7.083750
30   22.668000    2.833500   14.167500
30   25.501500    2.833500   11.334000
34   24.084750    1.416750   12.750750
34   24.084750    4.250250   15.584250
34   26.918250    1.416750   15.584250
34   26.918250    4.250250   12.750750
30   22.668000    2.833500   19.834500
30   25.501500    2.833500   17.001000
34   24.084750    1.416750   18.417750
34   24.084750    4.250250   21.251250
34   26.918250    1.416750   21.251250
34   26.918250    4.250250   18.417750
30   22.668000    2.833500   25.501500
30   25.501500    2.833500   22.668000
34   24.084750    1.416750   24.084750
34   24.084750    4.250250   26.918250
34   26.918250    1.416750   26.918250
34   26.918250    4.250250   24.084750
30   24.557000    4.722500   33.057500
30   27.390500    1.889000   33.057500
30   27.390500    4.722500   30.224000
34   24.084750    1.416750   29.751750
34   28.807250    6.139250   31.640750
30   28.335000    2.833500    2.833500
34   29.751750    1.416750    1.416750
34   29.751750    4.250250    4.250250
34   32.585250    1.416750    4.250250
34   32.585250    4.250250    1.416750
30   28.335000    2.833500    8.500500
30   31.168500    2.833500    5.667000
34   29.751750    1.416750    7.083750
34   29.751750    4.250250    9.917250
34   32.585250    1.416750    9.917250
34   32.585250    4.250250    7.083750
30   28.335000    2.833500   14.167500
30   31.168500    2.833500   11.334000
34   29.751750    1.416750   12.750750
34   29.751750    4.250250   15.584250
34   32.585250    1.416750   15.584250
34   32.585250    4.250250   12.750750
30   28.335000    2.833500   19.834500
30   31.168500    2.833500   17.001000
34   29.751750    1.416750   18.417750
34   29.751750    4.250250   21.251250
34   32.585250    1.416750   21.251250
34   32.585250    4.250250   18.417750
30   30.224000    4.722500   27.390500
30   33.057500    1.889000   27.390500
30   33.057500    4.722500   24.557000
34   29.751750    1.416750   24.084750
34   31.640750    6.139250   28.807250
30   30.224000    1.889000   30.224000
30   30.224000    4.722500   33.057500
30   33.057500    1.889000   33.057500
30   33.057500    4.722500   30.224000
34   31.640750    3.305750   31.640750
30    2.833500    5.667000    2.833500
34    1.416750    7.083750    1.416750
34    1.416750    9.917250    4.250250
34    4.250250    7.083750    4.250250
34    4.250250    9.917250    1.416750
30    2.833500    5.667000    8.500500
30    2.833500    8.500500    5.667000
34    1.416750    7.083750    7.083750
34    1.416750    9.917250    9.917250
34    4.250250    7.083750    9.917250
34    4.250250    9.917250    7.083750
30    2.833500    5.667000   14.167500
30    2.833500    8.500500   11.334000
34    1.416750    7.083750   12.750750
34    1.416750    9.917250   15.584250
34    4.250250    7.083750   15.584250
34    4.250250    9.917250   12.750750
30    2.833500    5.667000   19.834500
30    2.833500    8.500500   17.001000
34    1.416750    7.083750   18.417750
34    1.416750    9.917250   21.251250
34    4.250250    7.083750   21.251250
34    4.250250    9.917250   18.417750
30    2.833500    5.667000   25.501500
30    2.833500    8.500500   22.668000
34    1.416750    7.083750   24.084750
34    1.416750    9.917250   26.918250
34    4.250250    7.083750   26.918250
34    4.250250    9.917250   24.084750
30    2.833500    5.667000   31.168500
30    2.833500    8.500500   28.335000
34    1.416750    7.083750   29.751750
34    1.416750    9.917250   32.585250
34    4.250250    7.083750   32.585250
34    4.250250    9.917250   29.751750
30    5.667000    8.500500    2.833500
30    8.500500    5.667000    2.833500
34    7.083750    7.083750    1.416750
34    7.083750    9.917250    4.250250
34    9.917250    7.083750    4.250250
34    9.917250    9.917250    1.416750
30    5.667000    5.667000    5.667000
30    5.667000    8.500500    8.500500
30    8.500500    5.667000    8.500500
30    8.500500    8.500500    5.667000
34    7.083750    7.083750    7.083750
34    7.083750    9.917250    9.917250
34    9.917250    7.083750    9.917250
34    9.917250    9.917250    7.083750
30    5.667000    5.667000   11.334000
30    5.667000    8.500500   14.167500
30    8.500500    5.667000   14.167500
30    8.500500    8.500500   11.334000
34    7.083750    7.083750   12.750750
34    7.083750    9.917250   15.584250
34    9.917250    7.083750   15.584250
34    9.917250    9.917250   12.750750
30    5.667000    5.667000   17.001000
30    5.667000    8.500500   19.834500
30    8.500500    5.667000   19.834500
30    8.500500    8.500500   17.001000
34    7.083750    7.083750   18.417750
34    7.083750    9.917250   21.251250
34    9.917250    7.083750   21.251250
34    9.917250    9.917250   18.417750
30    5.667000    5.667000   22.668000
30    5.667000    8.500500   25.501500
30    8.500500    5.667000   25.501500
30    8.500500    8.500500   22.668000
34    7.083750    7.083750   24.084750
34    7.083750    9.917250   26.918250
34    9.917250    7.083750   26.918250
34    9.917250    9.917250   24.084750
30    5.667000    5.667000   28.335000
30    5.667000    8.500500   31.168500
30    8.500500    5.667000   31.168500
30    8.500500    8.500500   28.335000
34    7.083750    7.083750   29.751750
34    7.083750    9.917250   32.585250
34    9.917250    7.083750   32.585250
34    9.917250    9.917250   29.751750
30   11.334000    8.500500    2.833500
30   14.167500    5.667000    2.833500
34   12.750750    7.083750    1.416750
34   12.750750    9.917250    4.250250
34   15.584250    7.083750    4.250250
34   15.584250    9.917250    1.416750
30   11.334000    5.667000    5.667000
30   11.334000    8.500500    8.500500
30   14.167500    5.667000    8.500500
30   14.167500    8.500500    5.667000
34   12.750750    7.083750    7.083750
34   12.750750    9.917250    9.917250
34   15.584250    7.083750    9.917250
34   15.584250    9.917250    7.083750
30   11.334000    5.667000   11.334000
30   11.334000    8.500500   14.167500
30   14.167500    5.667000   14.167500
30   14.167500    8.500500   11.334000
34   12.750750    7.083750   12.750750
34   12.750750    9.917250   15.584250
34   15.584250    7.083750   15.584250
34   15.584250    9.917250   12.750750
30   11.334000    5.667000   17.001000
30   11.334000    8.500500   19.834500
30   14.167500    5.667000   19.834500
30   14.167500    8.500500   17.001000
34   12.750750    7.083750   18.417750
34   12.750750    9.917250   21.251250
34   15.584250    7.083750   21.251250
34   15.584250    9.917250   18.417750
30   11.334000    5.667000   22.668000
30   11.334000    8.500500   25.501500
30   14.167500    5.667000   25.501500
30   14.167500    8.500500   22.668000
34   12.750750    7.083750   24.084750
34   12.750750    9.917250   26.918250
34   15.584250    7.083750   26.918250
34   15.584250    9.917250   24.084750
30   11.334000    5.667000   28.335000
30   11.334000    8.500500   31.168500
30   14.167500    5.667000   31.168500
30   14.167500    8.500500   28.335000
34   12.750750    7.083750   29.751750
34   12.750750    9.917250   32.585250
34   15.584250    7.083750   32.585250
34   15.584250    9.917250   29.751750
30   17.001000    8.500500    2.833500
30   19.834500    5.667000    2.833500
34   18.417750    7.083750    1.416750
34   18.417750    9.917250    4.250250
34   21.251250    7.083750    4.250250
34   21.251250    9.917250    1.416750
30   17.001000    5.667000    5.667000
30   17.001000    8.500500    8.500500
30   19.834500    5.667000    8.500500
30   19.834500    8.500500    5.667000
34   18.417750    7.083750    7.083750
34   18.417750    9.917250    9.917250
34   21.251250    7.083750    9.917250
34   21.251250    9.917250    7.083750
30   17.001000    5.667000   11.334000
30   17.001000    8.500500   14.167500
30   19.834500    5.667000   14.167500
30   19.834500    8.500500   11.334000
34   18.417750    7.083750   12.750750
34   18.417750    9.917250   15.584250
34   21.251250    7.083750   15.584250
34   21.251250    9.917250   12.750750
30   17.001000    5.667000   17.001000
30   17.001000    8.500500   19.834500
30   19.834500    5.667000   19.834500
30   19.834500    8.500500   17.001000
34   18.417750    7.083750   18.417750
34   18.417750    9.917250   21.251250
34   21.251250    7.083750   21.251250
34   21.251250    9.917250   18.417750
30   17.001000    5.667000   22.668000
30   17.001000    8.500500   25.501500
30   19.834500    5.667000   25.501500
30   19.834500    8.500500   22.668000
34   18.417750    7.083750   24.084750
34   18.417750    9.917250   26.918250
34   21.251250    7.083750   26.918250
34   21.251250    9.917250   24.084750
30   17.001000    5.667000   28.335000
30   18.890000   10.389500   33.057500
30   21.723500    7.556000   33.057500
30   21.723500   10.389500   30.224000
34   18.417750    7.083750   29.751750
34   23.140250   11.806250   31.640750
30   22.668000    8.500500    2.833500
30   25.501500    5.667000    2.833500
34   24.084750    7.083750    1.416750
34   24.084750    9.917250    4.250250
34   26.918250    7.083750    4.250250
34   26.918250    9.917250    1.416750
30   22.668000    5.667000    5.667000
30   22.668000    8.500500    8.500500
30   25.501500    5.667000    8.500500
30   25.501500    8.500500    5.667000
34   24.084750    7.083750    7.083750
34   24.084750    9.917250    9.917250
34   26.918250    7.083750    9.917250
34   26.918250    9.917250    7.083750
30   22.668000    5.667000   11.334000
30   22.668000    8.500500   14.167500
30   25.501500    5.667000   14.167500
30   25.501500    8.500500   11.334000
34   24.084750    7.083750   12.750750
34   24.084750    9.917250   15.584250
34   26.918250    7.083750   15.584250
34   26.918250    9.917250   12.750750
30   22.668000    5.667000   17.001000
30   22.668000    8.500500   19.834500
30   25.501500    5.667000   19.834500
30   25.501500    8.500500   17.001000
34   24.084750    7.083750   18.417750
34   24.084750    9.917250   21.251250
34   26.918250    7.083750   21.251250
34   26.918250    9.917250   18.417750
30   22.668000    5.667000   22.668000
30   24.557000   10.389500   27.390500
30   27.390500    7.556000   27.390500
30   27.390500   10.389500   24.557000
34   24.084750    7.083750   24.084750
34   25.973750   11.806250   28.807250
34   28.807250    8.972750   28.807250
34   28.807250   11.806250   25.973750
30   24.557000    7.556000   30.224000
30   24.557000   10.389500   33.057500
30   27.390500    7.556000   33.057500
30   27.390500   10.389500   30.224000
34   25.973750    8.972750   31.640750
34   28.807250   11.806250   31.640750
30   28.335000    8.500500    2.833500
30   31.168500    5.667000    2.833500
34   29.751750    7.083750    1.416750
34   29.751750    9.917250    4.250250
34   32.585250    7.083750    4.250250
34   32.585250    9.917250    1.416750
30   28.335000    5.667000    5.667000
30   28.335000    8.500500    8.500500
30   31.168500    5.667000    8.500500
30   31.168500    8.500500    5.667000
34   29.751750    7.083750    7.083750
34   29.751750    9.917250    9.917250
34   32.585250    7.083750    9.917250
34   32.585250    9.917250    7.083750
30   28.335000    5.667000   11.334000
30   28.335000    8.500500   14.167500
30   31.168500    5.667000   14.167500
30   31.168500    8.500500   11.334000
34   29.751750    7.083750   12.750750
34   29.751750    9.917250   15.584250
34   32.585250    7.083750   15.584250
34   32.585250    9.917250   12.750750
30   28.335000    5.667000   17.001000
30   30.224000   10.389500   21.723500
30   33.057500    7.556000   21.723500
30   33.057500   10.389500   18.890000
34   29.751750    7.083750   18.417750
34   31.640750   11.806250   23.140250
30   30.224000    7.556000   24.557000
30   30.224000   10.389500   27.390500
30   33.057500    7.556000   27.390500
30   33.057500   10.389500   24.557000
34   31.640750    8.972750   25.973750
34   31.640750   11.806250   28.807250
30   30.224000    7.556000   30.224000
30   30.224000   10.389500   33.057500
30   33.057500    7.556000   33.057500
30   33.057500   10.389500   30.224000
34   31.640750    8.972750   31.640750
30    2.833500   11.334000    2.833500
34    1.416750   12.750750    1.416750
34    1.416750   15.584250    4.250250
34    4.250250   12.750750    4.250250
34    4.250250   15.584250    1.416750
30    2.833500   11.334000    8.500500
30    2.833500   14.167500    5.667000
34    1.416750   12.750750    7.083750
34    1.416750   15.584250    9.917250
34    4.250250   12.750750    9.917250
34    4.250250   15.584250    7.083750
30    2.833500   11.334000   14.167500
30    2.833500   14.167500   11.334000
34    1.416750   12.750750   12.750750
34    1.416750   15.584250   15.584250
34    4.250250   12.750750   15.584250
34    4.250250   15.584250   12.750750
30    2.833500   11.334000   19.834500
30    2.833500   14.167500   17.001000
34    1.416750   12.750750   18.417750
34    1.416750   15.584250   21.251250
34    4.250250   12.750750   21.251250
34    4.250250   15.584250   18.417750
30    2.833500   11.334000   25.501500
30    2.833500   14.167500   22.668000
34    1.416750   12.750750   24.084750
34    1.416750   15.584250   26.918250
34    4.250250   12.750750   26.918250
34    4.250250   15.584250   24.084750
30    2.833500   11.334000   31.168500
30    2.833500   14.167500   28.335000
34    1.416750   12.750750   29.751750
34    1.416750   15.584250   32.585250
34    4.250250   12.750750   32.585250
34    4.250250   15.584250   29.751750
30    5.667000   14.167500    2.833500
30    8.500500   11.334000    2.833500
34    7.083750   12.750750    1.416750
34    7.083750   15.584250    4.250250
34    9.917250   12.750750    4.250250
34    9.917250   15.584250    1.416750
30    5.667000   11.334000    5.667000
30    5.667000   14.167500    8.500500
30    8.500500   11.334000    8.500500
30    8.500500   14.167500    5.667000
34    7.083750   12.750750    7.083750
34    7.083750   15.584250    9.917250
34    9.917250   12.750750    9.917250
34    9.917250   15.584250    7.083750
30    5.667000   11.334000   11.334000
30    5.667000   14.167500   14.167500
30    8.500500   11.334000   14.167500
30    8.500500   14.167500   11.334000
34    7.083750   12.750750   12.750750
34    7.083750   15.584250   15.584250
34    9.917250   12.750750   15.584250
34    9.917250   15.584250   12.750750
30    5.667000   11.334000   17.001000
30    5.667000   14.167500   19.834500
30    8.500500   11.334000   19.834500
30    8.500500   14.167500   17.001000
34    7.083750   12.750750   18.417750
34    7.083750   15.584250   21.251250
34    9.917250   12.750750   21.251250
34    9.917250   15.584250   18.417750
30    5.667000   11.334000   22.668000
30    5.667000   14.167500   25.501500
30    8.500500   11.334000   25.501500
30    8.500500   14.167500   22.668000
34    7.083750   12.750750   24.084750
34    7.083750   15.584250   26.918250
34    9.917250   12.750750   26.918250
34    9.917250   15.584250   24.084750
30    5.667000   11.334000   28.335000
30    5.667000   14.167500   31.168500
30    8.500500   11.334000   31.168500
30    8.500500   14.167500   28.335000
34    7.083750   12.750750   29.751750
34    7.083750   15.584250   32.585250
34    9.917250   12.750750   32.585250
34    9.917250   15.584250   29.751750
30   11.334000   14.167500    2.833500
30   14.167500   11.334000    2.833500
34   12.750750   12.750750    1.416750
34   12.750750   15.584250    4.250250
34   15.584250   12.750750    4.250250
34   15.584250   15.584250    1.416750
30   11.334000   11.334000    5.667000
30   11.334000   14.167500    8.500500
30   14.167500   11.334000    8.500500
30   14.167500   14.167500    5.667000
34   12.750750   12.750750    7.083750
34   12.750750   15.584250    9.917250
34   15.584250   12.750750    9.917250
34   15.584250   15.584250    7.083750
30   11.334000   11.334000   11.334000
30   11.334000   14.167500   14.167500
30   14.167500   11.334000   14.167500
30   14.167500   14.167500   11.334000
34   12.750750   12.750750   12.750750
34   12.750750   15.584250   15.584250
34   15.584250   12.750750   15.584250
34   15.584250   15.584250   12.750750
30   11.334000   11.334000   17.001000
30   11.334000   14.167500   19.834500
30   14.167500   11.334000   19.834500
30   14.167500   14.167500   17.001000
34   12.750750   12.750750   18.417750
34   12.750750   15.584250   21.251250
34   15.584250   12.750750   21.251250
34   15.584250   15.584250   18.417750
30   11.334000   11.334000   22.668000
30   11.334000   14.167500   25.501500
30   14.167500   11.334000   25.501500
30   14.167500   14.167500   22.668000
34   12.750750   12.750750   24.084750
34   12.750750   15.584250   26.918250
34   15.584250   12.750750   26.918250
34   15.584250   15.584250   24.084750
30   11.334000   11.334000   28.335000
30   13.223000   16.056500   33.057500
30   16.056500   13.223000   33.057500
30   16.056500   16.056500   30.224000
34   12.750750   12.750750   29.751750
34   17.473250   17.473250   31.640750
30   17.001000   14.167500    2.833500
30   19.834500   11.334000    2.833500
34   18.417750   12.750750    1.416750
34   18.417750   15.584250    4.250250
34   21.251250   12.750750    4.250250
34   21.251250   15.584250    1.416750
30   17.001000   11.334000    5.667000
30   17.001000   14.167500    8.500500
30   19.834500   11.334000    8.500500
30   19.834500   14.167500    5.667000
34   18.417750   12.750750    7.083750
34   18.417750   15.584250    9.917250
34   21.251250   12.750750    9.917250
34   21.251250   15.584250    7.083750
30   17.001000   11.334000   11.334000
30   17.001000   14.167500   14.167500
30   19.834500   11.334000   14.167500
30   19.834500   14.167500   11.334000
34   18.417750   12.750750   12.750750
34   18.417750   15.584250   15.584250
34   21.251250   12.750750   15.584250
34   21.251250   15.584250   12.750750
30   17.001000   11.334000   17.001000
30   17.001000   14.167500   19.834500
30   19.834500   11.334000   19.834500
30   19.834500   14.167500   17.001000
34   18.417750   12.750750   18.417750
34   18.417750   15.584250   21.251250
34   21.251250   12.750750   21.251250
34   21.251250   15.584250   18.417750
30   17.001000   11.334000   22.668000
30   18.890000   16.056500   27.390500
30   21.723500   13.223000   27.390500
30   21.723500   16.056500   24.557000
34   18.417750   12.750750   24.084750
34   20.306750   17.473250   28.807250
34   23.140250   14.639750   28.807250
34   23.140250   17.473250   25.973750
30   18.890000   13.223000   30.224000
30   18.890000   16.056500   33.057500
30   21.723500   13.223000   33.057500
30   21.723500   16.056500   30.224000
34   20.306750   14.639750   31.640750
34   23.140250   17.473250   31.640750
30   22.668000   14.167500    2.833500
30   25.501500   11.334000    2.833500
34   24.084750   12.750750    1.416750
34   24.084750   15.584250    4.250250
34   26.918250   12.750750    4.250250
34   26.918250   15.584250    1.416750
30   22.668000   11.334000    5.667000
30   22.668000   14.167500    8.500500
30   25.501500   11.334000    8.500500
30   25.501500   14.167500    5.667000
34   24.084750   12.750750    7.083750
34   24.084750   15.584250    9.917250
34   26.918250   12.750750    9.917250
34   26.918250   15.584250    7.083750
30   22.668000   11.334000   11.334000
30   22.668000   14.167500   14.167500
30   25.501500   11.334000   14.167500
30   25.501500   14.167500   11.334000
34   24.084750   12.750750   12.750750
34   24.084750   15.584250   15.584250
34   26.918250   12.750750   15.584250
34   26.918250   15.584250   12.750750
30   22.668000   11.334000   17.001000
30   24.557000   16.056500   21.723500
30   27.390500   13.223000   21.723500
30   27.390500   16.056500   18.890000
34   24.084750   12.750750   18.417750
34   25.973750   17.473250   23.140250
34   28.807250   14.639750   23.140250
34   28.807250   17.473250   20.306750
30   24.557000   13.223000   24.557000
30   24.557000   16.056500   27.390500
30   27.390500   13.223000   27.390500
30   27.390500   16.056500   24.557000
34   25.973750   14.639750   25.973750
34   25.973750   17.473250   28.807250
34   28.807250   14.639750   28.807250
34   28.807250   17.473250   25.973750
30   24.557000   13.223000   30.224000
30   24.557000   16.056500   33.057500
30   27.390500   13.223000   33.057500
30   27.390500   16.056500   30.224000
34   25.973750   14.639750   31.640750
34   28.807250   17.473250   31.640750
30   28.335000   14.167500    2.833500
30   31.168500   11.334000    2.833500
34   29.751750   12.750750    1.416750
34   29.751750   15.584250    4.250250
34   32.585250   12.750750    4.250250
34   32.585250   15.584250    1.416750
30   28.335000   11.334000    5.667000
30   28.335000   14.167500    8.500500
30   31.168500   11.334000    8.500500
30   31.168500   14.167500    5.667000
34   29.751750   12.750750    7.083750
34   29.751750   15.584250    9.917250
34   32.585250   12.750750    9.917250
34   32.585250   15.584250    7.083750
30   28.335000   11.334000   11.334000
30   30.224000   16.056500   16.056500
30   33.057500   13.223000   16.056500
30   33.057500   16.056500   13.223000
34   29.751750   12.750750   12.750750
34   31.640750   17.473250   17.473250
30   30.224000   13.223000   18.890000
30   30.224000   16.056500   21.723500
30   33.057500   13.223000   21.723500
30   33.057500   16.056500   18.890000
34   31.640750   14.639750   20.306750
34   31.640750   17.473250   23.140250
30   30.224000   13.223000   24.557000
30   30.224000   16.056500   27.390500
30   33.057500   13.223000   27.390500
30   33.057500   16.056500   24.557000
34   31.640750   14.639750   25.973750
34   31.640750   17.473250   28.807250
30   30.224000   13.223000   30.224000
30   30.224000   16.056500   33.057500
30   33.057500   13.223000   33.057500
30   33.057500   16.056500   30.224000
34   31.640750   14.639750   31.640750
30    2.833500   17.001000    2.833500
34    1.416750   18.417750    1.416750
34    1.416750   21.251250    4.250250
34    4.250250   18.417750    4.250250
34    4.250250   21.251250    1.416750
30    2.833500   17.001000    8.500500
30    2.833500   19.834500    5.667000
34    1.416750   18.417750    7.083750
34    1.416750   21.251250    9.917250
34    4.250250   18.417750    9.917250
34    4.250250   21.251250    7.083750
30    2.833500   17.001000   14.167500
30    2.833500   19.834500   11.334000
34    1.416750   18.417750   12.750750
34    1.416750   21.251250   15.584250
34    4.250250   18.417750   15.584250
34    4.250250   21.251250   12.750750
30    2.833500   17.001000   19.834500
30    2.833500   19.834500   17.001000
34    1.416750   18.417750   18.417750
34    1.416750   21.251250   21.251250
34    4.250250   18.417750   21.251250
34    4.250250   21.251250   18.417750
30    2.833500   17.001000   25.501500
30    2.833500   19.834500   22.668000
34    1.416750   18.417750   24.084750
34    1.416750   21.251250   26.918250
34    4.250250   18.417750   26.918250
34    4.250250   21.251250   24.084750
30    2.833500   17.001000   31.168500
30    2.833500   19.834500   28.335000
34    1.416750   18.417750   29.751750
34    1.416750   21.251250   32.585250
34    4.250250   18.417750   32.585250
34    4.250250   21.251250   29.751750
30    5.667000   19.834500    2.833500
30    8.500500   17.001000    2.833500
34    7.083750   18.417750    1.416750
34    7.083750   21.251250    4.250250
34    9.917250   18.417750    4.250250
34    9.917250   21.251250    1.416750
30    5.667000   17.001000    5.667000
30    5.667000   19.834500    8.500500
30    8.500500   17.001000    8.500500
30    8.500500   19.834500    5.667000
34    7.083750   18.417750    7.083750
34    7.083750   21.251250    9.917250
34    9.917250   18.417750    9.917250
34    9.917250   21.251250    7.083750
30    5.667000   17.001000   11.334000
30    5.667000   19.834500   14.167500
30    8.500500   17.001000   14.167500
30    8.500500   19.834500   11.334000
34    7.083750   18.417750   12.750750
34    7.083750   21.251250   15.584250
34    9.917250   18.417750   15.584250
34    9.917250   21.251250   12.750750