CRYSTAL
PRIMVEC
  34.0020000   0.0000000   0.0000000
   0.0000000  34.0020000   0.0000000
   0.0000000   0.0000000  64.0020000
CONVVEC
  34.0020000   0.0000000   0.0000000
   0.0000000  34.0020000   0.0000000
   0.0000000   0.0000000  64.0020000

PRIMCOORD
5206 1
30    0.000000    0.000000   10.000000
30    0.000000    2.833500   12.833500
30    2.833500    0.000000   12.833500
30    2.833500    2.833500   10.000000
34    1.416750    1.416750   11.416750
34    1.416750    4.250250   14.250250
34    4.250250    1.416750   14.250250
34    4.250250    4.250250   11.416750
30    0.000000    0.000000   15.667000
30    0.000000    2.833500   18.500500
30    2.833500    0.000000   18.500500
30    2.833500    2.833500   15.667000
34    1.416750    1.416750   17.083750
34    1.416750    4.250250   19.917250
34    4.250250    1.416750   19.917250
34    4.250250    4.250250   17.083750
30    0.000000    0.000000   21.334000
30    0.000000    2.833500   24.167500
30    2.833500    0.000000   24.167500
30    2.833500    2.833500   21.334000
34    1.416750    1.416750   22.750750
34    1.416750    4.250250   25.584250
34    4.250250    1.416750   25.584250
34    4.250250    4.250250   22.750750
30    0.000000    0.000000   27.001000
30    0.000000    2.833500   29.834500
30    2.833500    0.000000   29.834500
30    2.833500    2.833500   27.001000
34    1.416750    1.416750   28.417750
34    1.416750    4.250250   31.251250
34    4.250250    1.416750   31.251250
34    4.250250    4.250250   28.417750
30    0.000000    0.000000   32.668000
30    0.000000    2.833500   35.501500
30    2.833500    0.000000   35.501500
30    2.833500    2.833500   32.668000
34    1.416750    1.416750   34.084750
34    1.416750    4.250250   36.918250
34    4.250250    1.416750   36.918250
34    4.250250    4.250250   34.084750
30    0.000000    0.000000   38.335000
30    0.000000    2.833500   41.168500
30    2.833500    0.000000   41.168500
30    2.833500    2.833500   38.335000
34    1.416750    1.416750   39.751750
34    1.416750    4.250250   42.585250
34    4.250250    1.416750   42.585250
34    4.250250    4.250250   39.751750
30    5.667000    0.000000   10.000000
30    5.667000    2.833500   12.833500
30    8.500500    0.000000   12.833500
30    8.500500    2.833500   10.000000
34    7.083750    1.416750   11.416750
34    7.083750    4.250250   14.250250
34    9.917250    1.416750   14.250250
34    9.917250    4.250250   11.416750
30    5.667000    0.000000   15.667000
30    5.667000    2.833500   18.500500
30    8.500500    0.000000   18.500500
30    8.500500    2.833500   15.667000
34    7.083750    1.416750   17.083750
34    7.083750    4.250250   19.917250
34    9.917250    1.416750   19.917250
34    9.917250    4.250250   17.083750
30    5.667000    0.000000   21.334000
30    5.667000    2.833500   24.167500
30    8.500500    0.000000   24.167500
30    8.500500    2.833500   21.334000
34    7.083750    1.416750   22.750750
34    7.083750    4.250250   25.584250
34    9.917250    1.416750   25.584250
34    9.917250    4.250250   22.750750
30    5.667000    0.000000   27.001000
30    5.667000    2.833500   29.834500
30    8.500500    0.000000   29.834500
30    8.500500    2.833500   27.001000
34    7.083750    1.416750   28.417750
34    7.083750    4.250250   31.251250
34    9.917250    1.416750   31.251250
34    9.917250    4.250250   28.417750
30    5.667000    0.000000   32.668000
30    5.667000    2.833500   35.501500
30    8.500500    0.000000   35.501500
30    8.500500    2.833500   32.668000
34    7.083750    1.416750   34.084750
34    7.083750    4.250250   36.918250
34    9.917250    1.416750   36.918250
34    9.917250    4.250250   34.084750
30    5.667000    0.000000   38.335000
30    5.667000    2.833500   41.168500
30    8.500500    0.000000   41.168500
30    8.500500    2.833500   38.335000
34    7.083750    1.416750   39.751750
34    7.083750    4.250250   42.585250
34    9.917250    1.416750   42.585250
34    9.917250    4.250250   39.751750
30   11.334000    0.000000   10.000000
30   11.334000    2.833500   12.833500
30   14.167500    0.000000   12.833500
30   14.167500    2.833500   10.000000
34   12.750750    1.416750   11.416750
34   12.750750    4.250250   14.250250
34   15.584250    1.416750   14.250250
34   15.584250    4.250250   11.416750
30   11.334000    0.000000   15.667000
30   11.334000    2.833500   18.500500
30   14.167500    0.000000   18.500500
30   14.167500    2.833500   15.667000
34   12.750750    1.416750   17.083750
34   12.750750    4.250250   19.917250
34   15.584250    1.416750   19.917250
34   15.584250    4.250250   17.083750
30   11.334000    0.000000   21.334000
30   11.334000    2.833500   24.167500
30   14.167500    0.000000   24.167500
30   14.167500    2.833500   21.334000
34   12.750750    1.416750   22.750750
34   12.750750    4.250250   25.584250
34   15.584250    1.416750   25.584250
34   15.584250    4.250250   22.750750
30   11.334000    0.000000   27.001000
30   11.334000    2.833500   29.834500
30   14.167500    0.000000   29.834500
30   14.167500    2.833500   27.001000
34   12.750750    1.416750   28.417750
34   12.750750    4.250250   31.251250
34   15.584250    1.416750   31.251250
34   15.584250    4.250250   28.417750
30   11.334000    0.000000   32.668000
30   11.334000    2.833500   35.501500
30   14.167500    0.000000   35.501500
30   14.167500    2.833500   32.668000
34   12.750750    1.416750   34.084750
34   12.750750    4.250250   36.918250
34   15.584250    1.416750   36.918250
34   15.584250    4.250250   34.084750
30   11.334000    0.000000   38.335000
30   11.334000    2.833500   41.168500
30   14.167500    0.000000   41.168500
30   14.167500    2.833500   38.335000
34   12.750750    1.416750   39.751750
34   12.750750    4.250250   42.585250
34   15.584250    1.416750   42.585250
34   15.584250    4.250250   39.751750
30   17.001000    0.000000   10.000000
30   17.001000    2.833500   12.833500
30   19.834500    0.000000   12.833500
30   19.834500    2.833500   10.000000
34   18.417750    1.416750   11.416750
34   18.417750    4.250250   14.250250
34   21.251250    1.416750   14.250250
34   21.251250    4.250250   11.416750
30   17.001000    0.000000   15.667000
30   17.001000    2.833500   18.500500
30   19.834500    0.000000   18.500500
30   19.834500    2.833500   15.667000
34   18.417750    1.416750   17.083750
34   18.417750    4.250250   19.917250
34   21.251250    1.416750   19.917250
34   21.251250    4.250250   17.083750
30   17.001000    0.000000   21.334000
30   17.001000    2.833500   24.167500
30   19.834500    0.000000   24.167500
30   19.834500    2.833500   21.334000
34   18.417750    1.416750   22.750750
34   18.417750    4.250250   25.584250
34   21.251250    1.416750   25.584250
34   21.251250    4.250250   22.750750
30   17.001000    0.000000   27.001000
30   17.001000    2.833500   29.834500
30   19.834500    0.000000   29.834500
30   19.834500    2.833500   27.001000
34   18.417750    1.416750   28.417750
34   18.417750    4.250250   31.251250
34   21.251250    1.416750   31.251250
34   21.251250    4.250250   28.417750
30   17.001000    0.000000   32.668000
30   17.001000    2.833500   35.501500
30   19.834500    0.000000   35.501500
30   19.834500    2.833500   32.668000
34   18.417750    1.416750   34.084750
34   18.417750    4.250250   36.918250
34   21.251250    1.416750   36.918250
34   21.251250    4.250250   34.084750
30   17.001000    0.000000   38.335000
30   17.001000    2.833500   41.168500
30   19.834500    0.000000   41.168500
30   19.834500    2.833500   38.335000
34   18.417750    1.416750   39.751750
34   18.417750    4.250250   42.585250
34   21.251250    1.416750   42.585250
34   21.251250    4.250250   39.751750
30   22.668000    0.000000   10.000000
30   22.668000    2.833500   12.833500
30   25.501500    0.000000   12.833500
30   25.501500    2.833500   10.000000
34   24.084750    1.416750   11.416750
34   24.084750    4.250250   14.250250
34   26.918250    1.416750   14.250250
34   26.918250    4.250250   11.416750
30   22.668000    0.000000   15.667000
30   22.668000    2.833500   18.500500
30   25.501500    0.000000   18.500500
30   25.501500    2.833500   15.667000
34   24.084750    1.416750   17.083750
34   24.084750    4.250250   19.917250
34   26.918250    1.416750   19.917250
34   26.918250    4.250250   17.083750
30   22.668000    0.000000   21.334000
30   22.668000    2.833500   24.167500
30   25.501500    0.000000   24.167500
30   25.501500    2.833500   21.334000
34   24.084750    1.416750   22.750750
34   24.084750    4.250250   25.584250
34   26.918250    1.416750   25.584250
34   26.918250    4.250250   22.750750
30   22.668000    0.000000   27.001000
30   22.668000    2.833500   29.834500
30   25.501500    0.000000   29.834500
30   25.501500    2.833500   27.001000
34   24.084750    1.416750   28.417750
34   24.084750    4.250250   31.251250
34   26.918250    1.416750   31.251250
34   26.918250    4.250250   28.417750
30   22.668000    0.000000   32.668000
30   22.668000    2.833500   35.501500
30   25.501500    0.000000   35.501500
30   25.501500    2.833500   32.668000
34   24.084750    1.416750   34.084750
34   24.084750    4.250250   36.918250
34   26.918250    1.416750   36.918250
34   26.918250    4.250250   34.084750
30   22.668000    0.000000   38.335000
30   22.668000    2.833500   41.168500
30   25.501500    0.000000   41.168500
30   25.501500    2.833500   38.335000
34   24.084750    1.416750   39.751750
34   24.084750    4.250250   42.585250
34   26.918250    1.416750   42.585250
34   26.918250    4.250250   39.751750
30   28.335000    0.000000   10.000000
30   28.335000    2.833500   12.833500
30   31.168500    0.000000   12.833500
30   31.168500    2.833500   10.000000
34   29.751750    1.416750   11.416750
34   29.751750    4.250250   14.250250
34   32.585250    1.416750   14.250250
34   32.585250    4.250250   11.416750
30   28.335000    0.000000   15.667000
30   28.335000    2.833500   18.500500
30   31.168500    0.000000   18.500500
30   31.168500    2.833500   15.667000
34   29.751750    1.416750   17.083750
34   29.751750    4.250250   19.917250
34   32.585250    1.416750   19.917250
34   32.585250    4.250250   17.083750
30   28.335000    0.000000   21.334000
30   28.335000    2.833500   24.167500
30   31.168500    0.000000   24.167500
30   31.168500    2.833500   21.334000
34   29.751750    1.416750   22.750750
34   29.751750    4.250250   25.584250
34   32.585250    1.416750   25.584250
34   32.585250    4.250250   22.750750
30   28.335000    0.000000   27.001000
30   28.335000    2.833500   29.834500
30   31.168500    0.000000   29.834500
30   31.168500    2.833500   27.001000
34   29.751750    1.416750   28.417750
34   29.751750    4.250250   31.251250
34   32.585250    1.416750   31.251250
34   32.585250    4.250250   28.417750
30   28.335000    0.000000   32.668000
30   28.335000    2.833500   35.501500
30   31.168500    0.000000   35.501500
30   31.168500    2.833500   32.668000
34   29.751750    1.416750   34.084750
34   29.751750    4.250250   36.918250
34   32.585250    1.416750   36.918250
34   32.585250    4.250250   34.084750
30   28.335000    0.000000   38.335000
30   28.335000    2.833500   41.168500
30   31.168500    0.000000   41.168500
30   31.168500    2.833500   38.335000
34   29.751750    1.416750   39.751750
34   29.751750    4.250250   42.585250
34   32.585250    1.416750   42.585250
34   32.585250    4.250250   39.751750
30    0.000000    5.667000   10.000000
30    0.000000    8.500500   12.833500
30    2.833500    5.667000   12.833500
30    2.833500    8.500500   10.000000
34    1.416750    7.083750   11.416750
34    1.416750    9.917250   14.250250
34    4.250250    7.083750   14.250250
34    4.250250    9.917250   11.416750
30    0.000000    5.667000   15.667000
30    0.000000    8.500500   18.500500
30    2.833500    5.667000   18.500500
30    2.833500    8.500500   15.667000
34    1.416750    7.083750   17.083750
34    1.416750    9.917250   19.917250
34    4.250250    7.083750   19.917250
34    4.250250    9.917250   17.083750
30    0.000000    5.667000   21.334000
30    0.000000    8.500500   24.167500
30    2.833500    5.667000   24.167500
30    2.833500    8.500500   21.334000
34    1.416750    7.083750   22.750750
34    1.416750    9.917250   25.584250
34    4.250250    7.083750   25.584250
34    4.250250    9.917250   22.750750
30    0.000000    5.667000   27.001000
30    0.000000    8.500500   29.834500
30    2.833500    5.667000   29.834500
30    2.833500    8.500500   27.001000
34    1.416750    7.083750   28.417750
34    1.416750    9.917250   31.251250
34    4.250250    7.083750   31.251250
34    4.250250    9.917250   28.417750
30    0.000000    5.667000   32.668000
30    0.000000    8.500500   35.501500
30    2.833500    5.667000   35.501500
30    2.833500    8.500500   32.668000
34    1.416750    7.083750   34.084750
34    1.416750    9.917250   36.918250
34    4.250250    7.083750   36.918250
34    4.250250    9.917250   34.084750
30    0.000000    5.667000   38.335000
30    0.000000    8.500500   41.168500
30    2.833500    5.667000   41.168500
30    2.833500    8.500500   38.335000
34    1.416750    7.083750   39.751750
34    1.416750    9.917250   42.585250
34    4.250250    7.083750   42.585250
34    4.250250    9.917250   39.751750
30    5.667000    5.667000   10.000000
30    5.667000    8.500500   12.833500
30    8.500500    5.667000   12.833500
30    8.500500    8.500500   10.000000
34    7.083750    7.083750   11.416750
34    7.083750    9.917250   14.250250
34    9.917250    7.083750   14.250250
34    9.917250    9.917250   11.416750
30    5.667000    5.667000   15.667000
30    5.667000    8.500500   18.500500
30    8.500500    5.667000   18.500500
30    8.500500    8.500500   15.667000
34    7.083750    7.083750   17.083750
34    7.083750    9.917250   19.917250
34    9.917250    7.083750   19.917250
34    9.917250    9.917250   17.083750
30    5.667000    5.667000   21.334000
30    5.667000    8.500500   24.167500
30    8.500500    5.667000   24.167500
30    8.500500    8.500500   21.334000
34    7.083750    7.083750   22.750750
34    7.083750    9.917250   25.584250
34    9.917250    7.083750   25.584250
34    9.917250    9.917250   22.750750
30    5.667000    5.667000   27.001000
30    5.667000    8.500500   29.834500
30    8.500500    5.667000   29.834500
30    8.500500    8.500500   27.001000
34    7.083750    7.083750   28.417750
34    7.083750    9.917250   31.251250
34    9.917250    7.083750   31.251250
34    9.917250    9.917250   28.417750
30    5.667000    5.667000   32.668000
30    5.667000    8.500500   35.501500
30    8.500500    5.667000   35.501500
30    8.500500    8.500500   32.668000
34    7.083750    7.083750   34.084750
34    7.083750    9.917250   36.918250
34    9.917250    7.083750   36.918250
34    9.917250    9.917250   34.084750
30    5.667000    5.667000   38.335000
30    5.667000    8.500500   41.168500
30    8.500500    5.667000   41.168500
30    8.500500    8.500500   38.335000
34    7.083750    7.083750   39.751750
34    7.083750    9.917250   42.585250
34    9.917250    7.083750   42.585250
34    9.917250    9.917250   39.751750
30   11.334000    5.667000   10.000000
30   11.334000    8.500500   12.833500
30   14.167500    5.667000   12.833500
30   14.167500    8.500500   10.000000
34   12.750750    7.083750   11.416750
34   12.750750    9.917250   14.250250
34   15.584250    7.083750   14.250250
34   15.584250    9.917250   11.416750
30   11.334000    5.667000   15.667000
30   11.334000    8.500500   18.500500
30   14.167500    5.667000   18.500500
30   14.167500    8.500500   15.667000
34   12.750750    7.083750   17.083750
34   12.750750    9.917250   19.917250
34   15.584250    7.083750   19.917250
34   15.584250    9.917250   17.083750
30   11.334000    5.667000   21.334000
30   11.334000    8.500500   24.167500
30   14.167500    5.667000   24.167500
30   14.167500    8.500500   21.334000
34   12.750750    7.083750   22.750750
34   12.750750    9.917250   25.584250
34   15.584250    7.083750   25.584250
34   15.584250    9.917250   22.750750
30   11.334000    5.667000   27.001000
30   11.334000    8.500500   29.834500
30   14.167500    5.667000   29.834500
30   14.167500    8.500500   27.001000
34   12.750750    7.083750   28.417750
34   12.750750    9.917250   31.251250
34   15.584250    7.083750   31.251250
34   15.584250    9.917250   28.417750
30   11.334000    5.667000   32.668000
30   11.334000    8.500500   35.501500
30   14.167500    5.667000   35.501500
30   14.167500    8.500500   32.668000
34   12.750750    7.083750   34.084750
34   12.750750    9.917250   36.918250
34   15.584250    7.083750   36.918250
34   15.584250    9.917250   34.084750
30   11.334000    5.667000   38.335000
30   11.334000    8.500500   41.168500
30   14.167500    5.667000   41.168500
30   14.167500    8.500500   38.335000
34   12.750750    7.083750   39.751750
34   12.750750    9.917250   42.585250
34   15.584250    7.083750   42.585250
34   15.584250    9.917250   39.751750
30   17.001000    5.667000   10.000000
30   17.001000    8.500500   12.833500
30   19.834500    5.667000   12.833500
30   19.834500    8.500500   10.000000
34   18.417750    7.083750   11.416750
34   18.417750    9.917250   14.250250
34   21.251250    7.083750   14.250250
34   21.251250    9.917250   11.416750
30   17.001000    5.667000   15.667000
30   17.001000    8.500500   18.500500
30   19.834500    5.667000   18.500500
30   19.834500    8.500500   15.667000
34   18.417750    7.083750   17.083750
34   18.417750    9.917250   19.917250
34   21.251250    7.083750   19.917250
34   21.251250    9.917250   17.083750
30   17.001000    5.667000   21.334000
30   17.001000    8.500500   24.167500
30   19.834500    5.667000   24.167500
30   19.834500    8.500500   21.334000
34   18.417750    7.083750   22.750750
34   18.417750    9.917250   25.584250
34   21.251250    7.083750   25.584250
34   21.251250    9.917250   22.750750
30   17.001000    5.667000   27.001000
30   17.001000    8.500500   29.834500
30   19.834500    5.667000   29.834500
30   19.834500    8.500500   27.001000
34   18.417750    7.083750   28.417750
34   18.417750    9.917250   31.251250
34   21.251250    7.083750   31.251250
34   21.251250    9.917250   28.417750
30   17.001000    5.667000   32.668000
30   17.001000    8.500500   35.501500
30   19.834500    5.667000   35.501500
30   19.834500    8.500500   32.668000
34   18.417750    7.083750   34.084750
34   18.417750    9.917250   36.918250
34   21.251250    7.083750   36.918250
34   21.251250    9.917250   34.084750
30   17.001000    5.667000   38.335000
30   17.001000    8.500500   41.168500
30   19.834500    5.667000   41.168500
30   19.834500    8.500500   38.335000
34   18.417750    7.083750   39.751750
34   18.417750    9.917250   42.585250
34   21.251250    7.083750   42.585250
34   21.251250    9.917250   39.751750
30   22.668000    5.667000   10.000000
30   22.668000    8.500500   12.833500
30   25.501500    5.667000   12.833500
30   25.501500    8.500500   10.000000
34   24.084750    7.083750   11.416750
34   24.084750    9.917250   14.250250
34   26.918250    7.083750   14.250250
34   26.918250    9.917250   11.416750
30   22.668000    5.667000   15.667000
30   22.668000    8.500500   18.500500
30   25.501500    5.667000   18.500500
30   25.501500    8.500500   15.667000
34   24.084750    7.083750   17.083750
34   24.084750    9.917250   19.917250
34   26.918250    7.083750   19.917250
34   26.918250    9.917250   17.083750
30   22.668000    5.667000   21.334000
30   22.668000    8.500500   24.167500
30   25.501500    5.667000   24.167500
30   25.501500    8.500500   21.334000
34   24.084750    7.083750   22.750750
34   24.084750    9.917250   25.584250
34   26.918250    7.083750   25.584250
34   26.918250    9.917250   22.750750
30   22.668000    5.667000   27.001000
30   22.668000    8.500500   29.834500
30   25.501500    5.667000   29.834500
30   25.501500    8.500500   27.001000
34   24.084750    7.083750   28.417750
34   24.084750    9.917250   31.251250
34   26.918250    7.083750   31.251250
34   26.918250    9.917250   28.417750
30   22.668000    5.667000   32.668000
30   22.668000    8.500500   35.501500
30   25.501500    5.667000   35.501500
30   25.501500    8.500500   32.668000
34   24.084750    7.083750   34.084750
34   24.084750    9.917250   36.918250
34   26.918250    7.083750   36.918250
34   26.918250    9.917250   34.084750
30   22.668000    5.667000   38.335000
30   22.668000    8.500500   41.168500
30   25.501500    5.667000   41.168500
30   25.501500    8.500500   38.335000
34   24.084750    7.083750   39.751750
34   24.084750    9.917250   42.585250
34   26.918250    7.083750   42.585250
34   26.918250    9.917250   39.751750
30   28.335000    5.667000   10.000000
30   28.335000    8.500500   12.833500
30   31.168500    5.667000   12.833500
30   31.168500    8.500500   10.000000
34   29.751750    7.083750   11.416750
34   29.751750    9.917250   14.250250
34   32.585250    7.083750   14.250250
34   32.585250    9.917250   11.416750
30   28.335000    5.667000   15.667000
30   28.335000    8.500500   18.500500
30   31.168500    5.667000   18.500500
30   31.168500    8.500500   15.667000
34   29.751750    7.083750   17.083750
34   29.751750    9.917250   19.917250
34   32.585250    7.083750   19.917250
34   32.585250    9.917250   17.083750
30   28.335000    5.667000   21.334000
30   28.335000    8.500500   24.167500
30   31.168500    5.667000   24.167500
30   31.168500    8.500500   21.334000
34   29.751750    7.083750   22.750750
34   29.751750    9.917250   25.584250
34   32.585250    7.083750   25.584250
34   32.585250    9.917250   22.750750
30   28.335000    5.667000   27.001000
30   28.335000    8.500500   29.834500
30   31.168500    5.667000   29.834500
30   31.168500    8.500500   27.001000
34   29.751750    7.083750   28.417750
34   29.751750    9.917250   31.251250
34   32.585250    7.083750   31.251250
34   32.585250    9.917250   28.417750
30   28.335000    5.667000   32.668000
30   28.335000    8.500500   35.501500
30   31.168500    5.667000   35.501500
30   31.168500    8.500500   32.668000
34   29.751750    7.083750   34.084750
34   29.751750    9.917250   36.918250
34   32.585250    7.083750   36.918250
34   32.585250    9.917250   34.084750
30   28.335000    5.667000   38.335000
30   28.335000    8.500500   41.168500
30   31.168500    5.667000   41.168500
30   31.168500    8.500500   38.335000
34   29.751750    7.083750   39.751750
34   29.751750    9.917250   42.585250
34   32.585250    7.083750   42.585250
34   32.585250    9.917250   39.751750
30    0.000000   11.334000   10.000000
30    0.000000   14.167500   12.833500
30    2.833500   11.334000   12.833500
30    2.833500   14.167500   10.000000
34    1.416750   12.750750   11.416750
34    1.416750   15.584250   14.250250
34    4.250250   12.750750   14.250250
34    4.250250   15.584250   11.416750
30    0.000000   11.334000   15.667000
30    0.000000   14.167500   18.500500
30    2.833500   11.334000   18.500500
30    2.833500   14.167500   15.667000
34    1.416750   12.750750   17.083750
34    1.416750   15.584250   19.917250
34    4.250250   12.750750   19.917250
34    4.250250   15.584250   17.083750
30    0.000000   11.334000   21.334000
30    0.000000   14.167500   24.167500
30    2.833500   11.334000   24.167500
30    2.833500   14.167500   21.334000
34    1.416750   12.750750   22.750750
34    1.416750   15.584250   25.584250
34    4.250250   12.750750   25.584250
34    4.250250   15.584250   22.750750
30    0.000000   11.334000   27.001000
30    0.000000   14.167500   29.834500
30    2.833500   11.334000   29.834500
30    2.833500   14.167500   27.001000
34    1.416750   12.750750   28.417750
34    1.416750   15.584250   31.251250
34    4.250250   12.750750   31.251250
34    4.250250   15.584250   28.417750
30    0.000000   11.334000   32.668000
30    0.000000   14.167500   35.501500
30    2.833500   11.334000   35.501500
30    2.833500   14.167500   32.668000
34    1.416750   12.750750   34.084750
34    1.416750   15.584250   36.918250
34    4.250250   12.750750   36.918250
34    4.250250   15.584250   34.084750
30    0.000000   11.334000   38.335000
30    0.000000   14.167500   41.168500
30    2.833500   11.334000   41.168500
30    2.833500   14.167500   38.335000
34    1.416750   12.750750   39.751750
34    1.416750   15.584250   42.585250
34    4.250250   12.750750   42.585250
34    4.250250   15.584250   39.751750
30    5.667000   11.334000   10.000000
30    5.667000   14.167500   12.833500
30    8.500500   11.334000   12.833500
30    8.500500   14.167500   10.000000
34    7.083750   12.750750   11.416750
34    7.083750   15.584250   14.250250
34    9.917250   12.750750   14.250250
34    9.917250   15.584250   11.416750
30    5.667000   11.334000   15.667000
30    5.667000   14.167500   18.500500
30    8.500500   11.334000   18.500500
30    8.500500   14.167500   15.667000
34    7.083750   12.750750   17.083750
34    7.083750   15.584250   19.917250
34    9.917250   12.750750   19.917250
34    9.917250   15.584250   17.083750
30    5.667000   11.334000   21.334000
30    5.667000   14.167500   24.167500
30    8.500500   11.334000   24.167500
30    8.500500   14.167500   21.334000
34    7.083750   12.750750   22.750750
34    7.083750   15.584250   25.584250
34    9.917250   12.750750   25.584250
34    9.917250   15.584250   22.750750
30    5.667000   11.334000   27.001000
30    5.667000   14.167500   29.834500
30    8.500500   11.334000   29.834500
30    8.500500   14.167500   27.001000
34    7.083750   12.750750   28.417750
34    7.083750   15.584250   31.251250
34    9.917250   12.750750   31.251250
34    9.917250   15.584250   28.417750
30    5.667000   11.334000   32.668000
30    5.667000   14.167500   35.501500
30    8.500500   11.334000   35.501500
30    8.500500   14.167500   32.668000
34    7.083750   12.750750   34.084750
34    7.083750   15.584250   36.918250
34    9.917250   12.750750   36.918250
34    9.917250   15.584250   34.084750
30    5.667000   11.334000   38.335000
30    5.667000   14.167500   41.168500
30    8.500500   11.334000   41.168500
30    8.500500   14.167500   38.335000
34    7.083750   12.750750   39.751750
34    7.083750   15.584250   42.585250
34    9.917250   12.750750   42.585250
34    9.917250   15.584250   39.751750
30   11.334000   11.334000   10.000000
30   11.334000   14.167500   12.833500
30   14.167500   11.334000   12.833500
30   14.167500   14.167500   10.000000
34   12.750750   12.750750   11.416750
34   12.750750   15.584250   14.250250
34   15.584250   12.750750   14.250250
34   15.584250   15.584250   11.416750
30   11.334000   11.334000   15.667000
30   11.334000   14.167500   18.500500
30   14.167500   11.334000   18.500500
30   14.167500   14.167500   15.667000
34   12.750750   12.750750   17.083750
34   12.750750   15.584250   19.917250
34   15.584250   12.750750   19.917250
34   15.584250   15.584250   17.083750
30   11.334000   11.334000   21.334000
30   11.334000   14.167500   24.167500
30   14.167500   11.334000   24.167500
30   14.167500   14.167500   21.334000
34   12.750750   12.750750   22.750750
34   12.750750   15.584250   25.584250
34   15.584250   12.750750   25.584250
34   15.584250   15.584250   22.750750
30   11.334000   11.334000   27.001000
30   11.334000   14.167500   29.834500
30   14.167500   11.334000   29.834500
30   14.167500   14.167500   27.001000
34   12.750750   12.750750   28.417750
34   12.750750   15.584250   31.251250
34   15.584250   12.750750   31.251250
34   15.584250   15.584250   28.417750
30   11.334000   11.334000   32.668000
30   11.334000   14.167500   35.501500
30   14.167500   11.334000   35.501500
30   14.167500   14.167500   32.668000
34   12.750750   12.750750   34.084750
34   12.750750   15.584250   36.918250
34   15.584250   12.750750   36.918250
34   15.584250   15.584250   34.084750
30   11.334000   11.334000   38.335000
30   11.334000   14.167500   41.168500
30   14.167500   11.334000   41.168500
30   14.167500   14.167500   38.335000
34   12.750750   12.750750   39.751750
34   12.750750   15.584250   42.585250
34   15.584250   12.750750   42.585250
34   15.584250   15.584250   39.751750
30   17.001000   11.334000   10.000000
30   17.001000   14.167500   12.833500
30   19.834500   11.334000   12.833500
30   19.834500   14.167500   10.000000
34   18.417750   12.750750   11.416750
34   18.417750   15.584250   14.250250
34   21.251250   12.750750   14.250250
34   21.251250   15.584250   11.416750
30   17.001000   11.334000   15.667000
30   17.001000   14.167500   18.500500
30   19.834500   11.334000   18.500500
30   19.834500   14.167500   15.667000
34   18.417750   12.750750   17.083750
34   18.417750   15.584250   19.917250
34   21.251250   12.750750   19.917250
34   21.251250   15.584250   17.083750
30   17.001000   11.334000   21.334000
30   17.001000   14.167500   24.167500
30   19.834500   11.334000   24.167500
30   19.834500   14.167500   21.334000
34   18.417750   12.750750   22.750750
34   18.417750   15.584250   25.584250
34   21.251250   12.750750   25.584250
34   21.251250   15.584250   22.750750
30   17.001000   11.334000   27.001000
30   17.001000   14.167500   29.834500
30   19.834500   11.334000   29.834500
30   19.834500   14.167500   27.001000
34   18.417750   12.750750   28.417750
34   18.417750   15.584250   31.251250
34   21.251250   12.750750   31.251250
34   21.251250   15.584250   28.417750
30   17.001000   11.334000   32.668000
30   17.001000   14.167500   35.501500
30   19.834500   11.334000   35.501500
30   19.834500   14.167500   32.668000
34   18.417750   12.750750   34.084750
34   18.417750   15.584250   36.918250
34   21.251250   12.750750   36.918250
34   21.251250   15.584250   34.084750
30   17.001000   11.334000   38.335000
30   17.001000   14.167500   41.168500